 Q-Chem 4.4, Q-Chem, Inc., Pleasanton, CA (2016)
 Q-Chem 4.4.2 for Intel X86 EM64T Linux

User input:
--------------------------------------------------------------
$molecule
 0  1
 S           0.00238887        0.06077275        0.00183269
 C           1.73707619        0.03315849        0.00323229
 H           2.27612737        0.05289032        0.94042557
 C           2.24169204       -0.01546201       -1.26965798
 H           3.30285780       -0.04005365       -1.48972496
 C           1.22479222       -0.01612968       -2.26811464
 H           1.42674790       -0.02650987       -3.33334501
 C          -0.05393771        0.02880388       -1.75170966
 C          -1.32450815        0.04889988       -2.45636342
 C          -2.59028196        0.27947397       -1.95767447
 H          -2.77814859        0.50102688       -0.91295513
 C          -3.61064674        0.23048879       -2.95132477
 H          -4.66195128        0.39547710       -2.74484898
 C          -3.12138231       -0.03521399       -4.20318600
 H          -3.66535902       -0.12026190       -5.13395850
 S          -1.39979365       -0.24810564       -4.18461445
$end

$rem
         jobtype = opt
        exchange = b3lyp
           basis = 6-31++g**
  max_scf_cycles = 150
      mem_static = 775
       mem_total = 7750
      sym_ignore = true
        symmetry = false
          thresh = 12
$end

$opt
CONSTRAINT
tors 6 8 9 10 -170.0
ENDCONSTRAINT
$end

--------------------------------------------------------------

   15   -1104.8406695361      3.82E-09 Convergence criterion met
 Total energy in the final basis set = -1104.8406695361
   10   -1104.8406880106      8.83E-09 Convergence criterion met
 Total energy in the final basis set = -1104.8406880106
    9   -1104.8406913170      8.01E-09 Convergence criterion met
 Total energy in the final basis set = -1104.8406913170

             Standard Nuclear Orientation (Angstroms)
    I     Atom           X                Y                Z
 ----------------------------------------------------------------
    1      S       0.0035632590     0.0641999091     0.0025003138
    2      C       1.7384520511     0.0256541085     0.0034130356
    3      H       2.2764604065     0.0332719191     0.9412989362
    4      C       2.2424724669    -0.0141456705    -1.2695399668
    5      H       3.3032492888    -0.0440963113    -1.4905570258
    6      C       1.2254191410    -0.0063325606    -2.2673283376
    7      H       1.4312494655    -0.0210212121    -3.3318455942
    8      C      -0.0542249960     0.0389257528    -1.7520378659
    9      C      -1.3235013742     0.0588431398    -2.4572527933
   10      C      -2.5902999250     0.2896973318    -1.9601919544
   11      H      -2.7824606804     0.5073799870    -0.9154054681
   12      C      -3.6115034784     0.2315715269    -2.9520880276
   13      H      -4.6633848256     0.3911607110    -2.7443995237
   14      C      -3.1231540869    -0.0421865351    -4.2020945349
   15      H      -3.6671125328    -0.1396957491    -5.1315225287
   16      S      -1.3995511996    -0.2439710273    -4.1849360845
 ----------------------------------------------------------------

    8   -1104.8406918735      6.66E-09 Convergence criterion met
 Total energy in the final basis set = -1104.8406918735
 Final energy is   -1104.84069187352
 **  OPTIMIZATION CONVERGED  **

                    Orbital Energies (a.u.)
 --------------------------------------------------------------

 Alpha MOs
 -- Occupied --
-88.920 -88.920 -10.240 -10.239 -10.225 -10.225 -10.205 -10.205
-10.204 -10.204  -7.979  -7.979  -5.944  -5.944  -5.940  -5.940
 -5.936  -5.936  -0.901  -0.878  -0.772  -0.750  -0.737  -0.706
 -0.605  -0.581  -0.551  -0.535  -0.527  -0.478  -0.420  -0.419
 -0.408  -0.405  -0.402  -0.379  -0.374  -0.358  -0.343  -0.284
 -0.265  -0.258  -0.212

          Ground-State Mulliken Net Atomic Charges

     Atom                 Charge (a.u.)
  ----------------------------------------
      1 S                    -0.136767
      2 C                     0.019103
      3 H                     0.199794
      4 C                    -0.362622
      5 H                     0.121443
      6 C                     0.419434
      7 H                     0.117546
      8 C                    -0.379995
      9 C                    -0.374122
     10 C                     0.417589
     11 H                     0.117818
     12 C                    -0.361143
     13 H                     0.121519
     14 C                     0.018511
     15 H                     0.199710
     16 S                    -0.137819
  ----------------------------------------
  Sum of atomic charges =     0.000000

                    Cartesian Multipole Moments
 -----------------------------------------------------------------
    Charge (ESU x 10^10)
                 0.0000
    Dipole Moment (Debye)
         X       0.0073      Y       0.1089      Z      -0.0114
       Tot       0.1097
    Quadrupole Moments (Debye-Ang)
        XX     -62.3201     XY      -0.9354     YY     -78.7036
        XZ       3.0771     YZ       0.6979     ZZ     -67.0205

 Total job time:  33.61s(wall), 32.28s(cpu)
        *  Thank you very much for using Q-Chem.  Have a nice day.  *
