 Q-Chem 4.4, Q-Chem, Inc., Pleasanton, CA (2016)
 Q-Chem 4.4.2 for Intel X86 EM64T Linux

User input:
--------------------------------------------------------------
$molecule
 0  1
 S           0.00238887        0.06077275        0.00183269
 C           1.73707619        0.03315849        0.00323229
 H           2.27612737        0.05289032        0.94042557
 C           2.24169204       -0.01546201       -1.26965798
 H           3.30285780       -0.04005365       -1.48972496
 C           1.22479222       -0.01612968       -2.26811464
 H           1.42674790       -0.02650987       -3.33334501
 C          -0.05393771        0.02880388       -1.75170966
 C          -1.32450815        0.04889988       -2.45636342
 C          -1.60536476       -0.33665453       -3.75116294
 H          -0.85263467       -0.73860961       -4.42022767
 C          -2.97768999       -0.18575937       -4.10448834
 H          -3.38242070       -0.44557594       -5.07597331
 C          -3.73889760        0.31201522       -3.07983347
 H          -4.80071483        0.51670925       -3.06861781
 S          -2.78295918        0.62217778       -1.66579096
$end

$rem
         jobtype = opt
        exchange = b3lyp
           basis = 6-31++g**
  max_scf_cycles = 150
      mem_static = 775
       mem_total = 7750
      sym_ignore = true
        symmetry = false
          thresh = 12
$end

$opt
CONSTRAINT
tors 6 8 9 10 20.0
ENDCONSTRAINT
$end

--------------------------------------------------------------

   14   -1104.8392058220      4.25E-09 Convergence criterion met
 Total energy in the final basis set = -1104.8392058220
   12   -1104.8394412762      1.80E-09 Convergence criterion met
 Total energy in the final basis set = -1104.8394412762
   10   -1104.8394827528      9.84E-09 Convergence criterion met
 Total energy in the final basis set = -1104.8394827528
   10   -1104.8394975154      6.49E-09 Convergence criterion met
 Total energy in the final basis set = -1104.8394975154
   11   -1104.8395096649      2.77E-09 Convergence criterion met
 Total energy in the final basis set = -1104.8395096649
    9   -1104.8395124666      8.30E-09 Convergence criterion met
 Total energy in the final basis set = -1104.8395124666

             Standard Nuclear Orientation (Angstroms)
    I     Atom           X                Y                Z
 ----------------------------------------------------------------
    1      S       0.0287394962     0.0310556025     0.0371805703
    2      C       1.7622854151     0.0051226694    -0.0057498116
    3      H       2.3246826199     0.0041795157     0.9176911578
    4      C       2.2334066026    -0.0081158159    -1.2926553592
    5      H       3.2886609094    -0.0228465865    -1.5406522102
    6      C       1.1918752207     0.0176274175    -2.2641284652
    7      H       1.3661519510     0.0420128878    -3.3334965731
    8      C      -0.0739319920     0.0475502331    -1.7137873290
    9      C      -1.3483314675     0.0435235057    -2.4144164782
   10      C      -1.5975833603    -0.3627514160    -3.7102619574
   11      H      -0.8332323097    -0.7925314140    -4.3472833666
   12      C      -2.9556317347    -0.1968826657    -4.1067254395
   13      H      -3.3360863071    -0.4707903223    -5.0842710552
   14      C      -3.7394609862     0.3317003546    -3.1146669768
   15      H      -4.7985004232     0.5489274914    -3.1365559581
   16      S      -2.8204888343     0.6528914528    -1.6797403681
 ----------------------------------------------------------------

    9   -1104.8395130038      3.59E-09 Convergence criterion met
 Total energy in the final basis set = -1104.8395130038
 Final energy is   -1104.83951300383
 **  OPTIMIZATION CONVERGED  **

                    Orbital Energies (a.u.)
 --------------------------------------------------------------

 Alpha MOs
 -- Occupied --
-88.920 -88.920 -10.239 -10.239 -10.225 -10.225 -10.205 -10.205
-10.203 -10.203  -7.979  -7.979  -5.944  -5.944  -5.940  -5.940
 -5.937  -5.936  -0.900  -0.878  -0.771  -0.749  -0.737  -0.705
 -0.604  -0.579  -0.554  -0.533  -0.527  -0.477  -0.421  -0.418
 -0.409  -0.403  -0.401  -0.377  -0.374  -0.359  -0.344  -0.280
 -0.264  -0.259  -0.213

          Ground-State Mulliken Net Atomic Charges

     Atom                 Charge (a.u.)
  ----------------------------------------
      1 S                    -0.097471
      2 C                     0.007774
      3 H                     0.195846
      4 C                    -0.351151
      5 H                     0.120233
      6 C                     0.325817
      7 H                     0.121741
      8 C                    -0.325164
      9 C                    -0.321162
     10 C                     0.326536
     11 H                     0.121853
     12 C                    -0.349642
     13 H                     0.120252
     14 C                     0.007575
     15 H                     0.195981
     16 S                    -0.099019
  ----------------------------------------
  Sum of atomic charges =     0.000000

                    Cartesian Multipole Moments
 -----------------------------------------------------------------
    Charge (ESU x 10^10)
                -0.0000
    Dipole Moment (Debye)
         X       0.4846      Y      -0.2051      Z      -0.8799
       Tot       1.0253
    Quadrupole Moments (Debye-Ang)
        XX     -63.5172     XY      -0.9105     YY     -78.0903
        XZ       3.1158     YZ       2.0158     ZZ     -63.5205

 Total job time:  58.99s(wall), 58.15s(cpu)
        *  Thank you very much for using Q-Chem.  Have a nice day.  *
