 Q-Chem 4.4, Q-Chem, Inc., Pleasanton, CA (2016)
 Q-Chem 4.4.2 for Intel X86 EM64T Linux

User input:
--------------------------------------------------------------
$molecule
 0  1
 S           0.00238887        0.06077275        0.00183269
 C           1.73707619        0.03315849        0.00323229
 H           2.27612737        0.05289032        0.94042557
 C           2.24169204       -0.01546201       -1.26965798
 H           3.30285780       -0.04005365       -1.48972496
 C           1.22479222       -0.01612968       -2.26811464
 H           1.42674790       -0.02650987       -3.33334501
 C          -0.05393771        0.02880388       -1.75170966
 C          -1.32450815        0.04889988       -2.45636342
 C          -1.56700304        0.21461261       -3.80461190
 H          -0.77327810        0.34092584       -4.53252931
 C          -2.95051677        0.16955731       -4.14335147
 H          -3.32753912        0.27268101       -5.15444705
 C          -3.75809803       -0.03160198       -3.05501253
 H          -4.83583766       -0.11498684       -3.02330268
 S          -2.83745639       -0.15225136       -1.58961225
$end

$rem
         jobtype = opt
        exchange = b3lyp
           basis = 6-31++g**
  max_scf_cycles = 150
      mem_static = 775
       mem_total = 7750
      sym_ignore = true
        symmetry = false
          thresh = 12
$end

$opt
CONSTRAINT
tors 6 8 9 10 -10.0
ENDCONSTRAINT
$end

--------------------------------------------------------------

   14   -1104.8386768293      6.87E-09 Convergence criterion met
 Total energy in the final basis set = -1104.8386768293
   11   -1104.8390427875      5.33E-09 Convergence criterion met
 Total energy in the final basis set = -1104.8390427875
   11   -1104.8390927261      4.23E-09 Convergence criterion met
 Total energy in the final basis set = -1104.8390927261
   10   -1104.8391159847      4.76E-09 Convergence criterion met
 Total energy in the final basis set = -1104.8391159847
   10   -1104.8391281866      5.37E-09 Convergence criterion met
 Total energy in the final basis set = -1104.8391281866
   10   -1104.8391342522      3.00E-09 Convergence criterion met
 Total energy in the final basis set = -1104.8391342522
   10   -1104.8391369271      1.76E-09 Convergence criterion met
 Total energy in the final basis set = -1104.8391369271

             Standard Nuclear Orientation (Angstroms)
    I     Atom           X                Y                Z
 ----------------------------------------------------------------
    1      S       0.0295993022     0.1054157158     0.0337040627
    2      C       1.7625612631     0.0513634789    -0.0048295761
    3      H       2.3229078258     0.0681932748     0.9196361516
    4      C       2.2345705614    -0.0131889729    -1.2897358512
    5      H       3.2895659544    -0.0553759318    -1.5355700829
    6      C       1.1943121508    -0.0290756213    -2.2620574963
    7      H       1.3724091610    -0.0978505986    -3.3288230956
    8      C      -0.0732032798     0.0228156137    -1.7156540780
    9      C      -1.3453328370     0.0529131199    -2.4200649260
   10      C      -1.5569080395     0.2261704904    -3.7739707242
   11      H      -0.7522481322     0.4089011895    -4.4764799622
   12      C      -2.9296683263     0.1684564978    -4.1480733314
   13      H      -3.2825592569     0.2894915509    -5.1659469099
   14      C      -3.7637222834    -0.0482580931    -3.0827616298
   15      H      -4.8419959160    -0.1280552887    -3.0755349897
   16      S      -2.8767807275    -0.1966097254    -1.6001298711
 ----------------------------------------------------------------

    9   -1104.8391377191      4.81E-09 Convergence criterion met
 Total energy in the final basis set = -1104.8391377191
 Final energy is   -1104.83913771914
 **  OPTIMIZATION CONVERGED  **

                    Orbital Energies (a.u.)
 --------------------------------------------------------------

 Alpha MOs
 -- Occupied --
-88.920 -88.920 -10.240 -10.239 -10.225 -10.225 -10.205 -10.205
-10.203 -10.203  -7.980  -7.979  -5.944  -5.944  -5.940  -5.940
 -5.937  -5.937  -0.901  -0.878  -0.772  -0.750  -0.737  -0.705
 -0.604  -0.580  -0.553  -0.533  -0.528  -0.477  -0.422  -0.419
 -0.408  -0.403  -0.402  -0.377  -0.374  -0.360  -0.343  -0.283
 -0.265  -0.258  -0.211

          Ground-State Mulliken Net Atomic Charges

     Atom                 Charge (a.u.)
  ----------------------------------------
      1 S                    -0.139913
      2 C                     0.025736
      3 H                     0.199664
      4 C                    -0.400192
      5 H                     0.119305
      6 C                     0.364286
      7 H                     0.109528
      8 C                    -0.277903
      9 C                    -0.276665
     10 C                     0.360063
     11 H                     0.109200
     12 C                    -0.398735
     13 H                     0.119324
     14 C                     0.025710
     15 H                     0.199736
     16 S                    -0.139145
  ----------------------------------------
  Sum of atomic charges =     0.000000

                    Cartesian Multipole Moments
 -----------------------------------------------------------------
    Charge (ESU x 10^10)
                -0.0000
    Dipole Moment (Debye)
         X       0.5044      Y       0.0549      Z      -0.9101
       Tot       1.0420
    Quadrupole Moments (Debye-Ang)
        XX     -63.3819     XY       0.1445     YY     -78.7567
        XZ       2.8042     YZ      -0.7235     ZZ     -62.8954

 Total job time:  66.47s(wall), 66.41s(cpu)
        *  Thank you very much for using Q-Chem.  Have a nice day.  *
