 Q-Chem 4.4, Q-Chem, Inc., Pleasanton, CA (2016)
 Q-Chem 4.4.2 for Intel X86 EM64T Linux

User input:
--------------------------------------------------------------
$molecule
 0  1
 S           0.00238887        0.06077275        0.00183269
 C           1.73707619        0.03315849        0.00323229
 H           2.27612737        0.05289032        0.94042557
 C           2.24169204       -0.01546201       -1.26965798
 H           3.30285780       -0.04005365       -1.48972496
 C           1.22479222       -0.01612968       -2.26811464
 H           1.42674790       -0.02650987       -3.33334501
 C          -0.05393771        0.02880388       -1.75170966
 C          -1.32450815        0.04889988       -2.45636342
 C          -1.57705346       -0.15765971       -3.79710666
 H          -0.79579543       -0.38859800       -4.51273328
 C          -2.95863404       -0.07068413       -4.13556656
 H          -3.34391574       -0.21295066       -5.13876788
 C          -3.75498914        0.19987576       -3.05401671
 H          -4.83023938        0.31053419       -3.02126160
 S          -2.82293145        0.37079597       -1.60088560
$end

$rem
         jobtype = opt
        exchange = b3lyp
           basis = 6-31++g**
  max_scf_cycles = 150
      mem_static = 775
       mem_total = 7750
      sym_ignore = true
        symmetry = false
          thresh = 12
$end

$opt
CONSTRAINT
tors 6 8 9 10 10.0
ENDCONSTRAINT
$end

--------------------------------------------------------------

   14   -1104.8388098087      4.81E-09 Convergence criterion met
 Total energy in the final basis set = -1104.8388098087
   11   -1104.8390860491      8.07E-09 Convergence criterion met
 Total energy in the final basis set = -1104.8390860491
   10   -1104.8391139978      9.45E-09 Convergence criterion met
 Total energy in the final basis set = -1104.8391139978
   10   -1104.8391238036      2.79E-09 Convergence criterion met
 Total energy in the final basis set = -1104.8391238036
   10   -1104.8391344177      7.43E-09 Convergence criterion met
 Total energy in the final basis set = -1104.8391344177
   10   -1104.8391381342      2.24E-09 Convergence criterion met
 Total energy in the final basis set = -1104.8391381342

             Standard Nuclear Orientation (Angstroms)
    I     Atom           X                Y                Z
 ----------------------------------------------------------------
    1      S       0.0292786167     0.0334747459     0.0364189372
    2      C       1.7628094079     0.0098061703    -0.0045008639
    3      H       2.3236169553     0.0092232096     0.9198285558
    4      C       2.2344198903    -0.0024609200    -1.2911800154
    5      H       3.2897486326    -0.0162617197    -1.5388432604
    6      C       1.1938322941     0.0166166678    -2.2630365865
    7      H       1.3723831117     0.0284228148    -3.3318212663
    8      C      -0.0735763501     0.0447497032    -1.7144239188
    9      C      -1.3472883375     0.0376857700    -2.4167205760
   10      C      -1.5687730785    -0.1879339104    -3.7613987292
   11      H      -0.7746300261    -0.4390513919    -4.4547401309
   12      C      -2.9380353702    -0.0844035823    -4.1382438722
   13      H      -3.2982013849    -0.2379997803    -5.1491557483
   14      C      -3.7593576121     0.2201925603    -3.0845336763
   15      H      -4.8328868139     0.3490210703    -3.0810807589
   16      S      -2.8636620453     0.3966021224    -1.6103314998
 ----------------------------------------------------------------

    9   -1104.8391393755      8.18E-09 Convergence criterion met
 Total energy in the final basis set = -1104.8391393755
 Final energy is   -1104.83913937551
 **  OPTIMIZATION CONVERGED  **

                    Orbital Energies (a.u.)
 --------------------------------------------------------------

 Alpha MOs
 -- Occupied --
-88.920 -88.920 -10.240 -10.239 -10.225 -10.225 -10.205 -10.205
-10.203 -10.203  -7.980  -7.980  -5.944  -5.944  -5.940  -5.940
 -5.937  -5.937  -0.901  -0.878  -0.772  -0.750  -0.737  -0.705
 -0.604  -0.580  -0.554  -0.533  -0.528  -0.477  -0.422  -0.419
 -0.408  -0.403  -0.402  -0.377  -0.374  -0.360  -0.343  -0.283
 -0.265  -0.258  -0.211

          Ground-State Mulliken Net Atomic Charges

     Atom                 Charge (a.u.)
  ----------------------------------------
      1 S                    -0.138861
      2 C                     0.025580
      3 H                     0.199604
      4 C                    -0.398948
      5 H                     0.119335
      6 C                     0.362761
      7 H                     0.109533
      8 C                    -0.279001
      9 C                    -0.278318
     10 C                     0.360307
     11 H                     0.109462
     12 C                    -0.397904
     13 H                     0.119361
     14 C                     0.026016
     15 H                     0.199694
     16 S                    -0.138620
  ----------------------------------------
  Sum of atomic charges =     0.000000

                    Cartesian Multipole Moments
 -----------------------------------------------------------------
    Charge (ESU x 10^10)
                -0.0000
    Dipole Moment (Debye)
         X       0.4992      Y      -0.1191      Z      -0.9058
       Tot       1.0411
    Quadrupole Moments (Debye-Ang)
        XX     -63.4124     XY      -0.6264     YY     -78.6550
        XZ       2.8654     YZ       1.1896     ZZ     -62.9965

 Total job time:  58.21s(wall), 58.40s(cpu)
        *  Thank you very much for using Q-Chem.  Have a nice day.  *
