 Q-Chem 4.4, Q-Chem, Inc., Pleasanton, CA (2016)
 Q-Chem 4.4.2 for Intel X86 EM64T Linux

User input:
--------------------------------------------------------------
$molecule
 0  1
 S           0.00238887        0.06077275        0.00183269
 C           1.73707619        0.03315849        0.00323229
 H           2.27612737        0.05289032        0.94042557
 C           2.24169204       -0.01546201       -1.26965798
 H           3.30285780       -0.04005365       -1.48972496
 C           1.22479222       -0.01612968       -2.26811464
 H           1.42674790       -0.02650987       -3.33334501
 C          -0.05393771        0.02880388       -1.75170966
 C          -1.32450815        0.04889988       -2.45636342
 C          -2.20238295       -0.98900508       -2.69327597
 H          -2.02757945       -1.99833813       -2.33759548
 C          -3.36585739       -0.59596420       -3.41627723
 H          -4.16701814       -1.27498768       -3.68490933
 C          -3.37323495        0.73840018       -3.72700453
 H          -4.12873100        1.30129592       -4.25790506
 S          -1.94342567        1.53606874       -3.15350164
$end

$rem
         jobtype = opt
        exchange = b3lyp
           basis = 6-31++g**
  max_scf_cycles = 150
      mem_static = 775
       mem_total = 7750
      sym_ignore = true
        symmetry = false
          thresh = 12
$end

$opt
CONSTRAINT
tors 6 8 9 10 100.0
ENDCONSTRAINT
$end

--------------------------------------------------------------

   14   -1104.8371842576      7.75E-09 Convergence criterion met
 Total energy in the final basis set = -1104.8371842576
   11   -1104.8374689130      5.93E-09 Convergence criterion met
 Total energy in the final basis set = -1104.8374689130
   10   -1104.8374991009      7.00E-09 Convergence criterion met
 Total energy in the final basis set = -1104.8374991009
   10   -1104.8375073397      5.58E-09 Convergence criterion met
 Total energy in the final basis set = -1104.8375073397
    9   -1104.8375109576      8.20E-09 Convergence criterion met
 Total energy in the final basis set = -1104.8375109576
    9   -1104.8375127572      7.59E-09 Convergence criterion met
 Total energy in the final basis set = -1104.8375127572

             Standard Nuclear Orientation (Angstroms)
    I     Atom           X                Y                Z
 ----------------------------------------------------------------
    1      S       0.0170914495     0.0594285536     0.0190950532
    2      C       1.7480994308     0.0031860869     0.0038173149
    3      H       2.2994109787    -0.0185866989     0.9341890246
    4      C       2.2422210107    -0.0117321139    -1.2747619718
    5      H       3.3008961496    -0.0489851222    -1.5051174591
    6      C       1.2136625516     0.0190020568    -2.2633132346
    7      H       1.3953959791     0.0041975696    -3.3320371587
    8      C      -0.0556757858     0.0602102928    -1.7339307261
    9      C      -1.3427878430     0.0732947743    -2.4372845000
   10      C      -2.2103535602    -0.9709513306    -2.6611612162
   11      H      -2.0141869815    -1.9746844409    -2.3011907773
   12      C      -3.3664000193    -0.5998833631    -3.4109478278
   13      H      -4.1565680596    -1.2898351507    -3.6845010701
   14      C      -3.3695941670     0.7266239603    -3.7563506445
   15      H      -4.1146485944     1.2681353419    -4.3236607944
   16      S      -1.9615555592     1.5444194441    -3.1667383721
 ----------------------------------------------------------------

    9   -1104.8375134985      6.69E-09 Convergence criterion met
 Total energy in the final basis set = -1104.8375134985
 Final energy is   -1104.83751349853
 **  OPTIMIZATION CONVERGED  **

                    Orbital Energies (a.u.)
 --------------------------------------------------------------

 Alpha MOs
 -- Occupied --
-88.919 -88.919 -10.236 -10.235 -10.224 -10.224 -10.204 -10.204
-10.203 -10.203  -7.978  -7.978  -5.942  -5.942  -5.939  -5.939
 -5.936  -5.936  -0.898  -0.877  -0.768  -0.743  -0.740  -0.705
 -0.600  -0.569  -0.562  -0.534  -0.523  -0.478  -0.417  -0.415
 -0.411  -0.406  -0.394  -0.375  -0.375  -0.352  -0.349  -0.264
 -0.257  -0.250  -0.236

          Ground-State Mulliken Net Atomic Charges

     Atom                 Charge (a.u.)
  ----------------------------------------
      1 S                     0.065534
      2 C                    -0.050973
      3 H                     0.187193
      4 C                    -0.362124
      5 H                     0.118933
      6 C                     0.275255
      7 H                     0.132645
      8 C                    -0.367153
      9 C                    -0.364307
     10 C                     0.272382
     11 H                     0.132559
     12 C                    -0.360753
     13 H                     0.118925
     14 C                    -0.051449
     15 H                     0.187270
     16 S                     0.066063
  ----------------------------------------
  Sum of atomic charges =     0.000000

                    Cartesian Multipole Moments
 -----------------------------------------------------------------
    Charge (ESU x 10^10)
                 0.0000
    Dipole Moment (Debye)
         X       0.2040      Y      -0.5565      Z      -0.3852
       Tot       0.7069
    Quadrupole Moments (Debye-Ang)
        XX     -64.0540     XY       0.7758     YY     -73.8003
        XZ       5.0062     YZ       0.2079     ZZ     -68.8409

 Total job time:  57.87s(wall), 55.67s(cpu)
        *  Thank you very much for using Q-Chem.  Have a nice day.  *
