 Q-Chem 4.4, Q-Chem, Inc., Pleasanton, CA (2016)
 Q-Chem 4.4.2 for Intel X86 EM64T Linux

User input:
--------------------------------------------------------------
$molecule
 0  1
 S           0.00238887        0.06077275        0.00183269
 C           1.73707619        0.03315849        0.00323229
 H           2.27612737        0.05289032        0.94042557
 C           2.24169204       -0.01546201       -1.26965798
 H           3.30285780       -0.04005365       -1.48972496
 C           1.22479222       -0.01612968       -2.26811464
 H           1.42674790       -0.02650987       -3.33334501
 C          -0.05393771        0.02880388       -1.75170966
 C          -1.32450815        0.04889988       -2.45636342
 C          -1.87878338        1.05691509       -3.21841508
 H          -1.37790393        2.00231287       -3.39493952
 C          -3.14804684        0.71935187       -3.77150284
 H          -3.72690446        1.38393152       -4.40265447
 C          -3.55716209       -0.54335979       -3.43191756
 H          -4.46619816       -1.05529587       -3.71662115
 S          -2.40031074       -1.33723846       -2.41162991
$end

$rem
         jobtype = opt
        exchange = b3lyp
           basis = 6-31++g**
  max_scf_cycles = 150
      mem_static = 775
       mem_total = 7750
      sym_ignore = true
        symmetry = false
          thresh = 12
$end

$opt
CONSTRAINT
tors 6 8 9 10 -70.0
ENDCONSTRAINT
$end

--------------------------------------------------------------

   14   -1104.8375710830      8.04E-09 Convergence criterion met
 Total energy in the final basis set = -1104.8375710830
   11   -1104.8378903753      6.46E-09 Convergence criterion met
 Total energy in the final basis set = -1104.8378903753
   10   -1104.8379432098      8.24E-09 Convergence criterion met
 Total energy in the final basis set = -1104.8379432098
   10   -1104.8379559217      4.75E-09 Convergence criterion met
 Total energy in the final basis set = -1104.8379559217
    9   -1104.8379598364      9.07E-09 Convergence criterion met
 Total energy in the final basis set = -1104.8379598364
    9   -1104.8379613859      6.63E-09 Convergence criterion met
 Total energy in the final basis set = -1104.8379613859

             Standard Nuclear Orientation (Angstroms)
    I     Atom           X                Y                Z
 ----------------------------------------------------------------
    1      S       0.0078415374     0.0489586830     0.0100776533
    2      C       1.7402476270     0.0218485692     0.0065894710
    3      H       2.2841305661     0.0190108416     0.9415217691
    4      C       2.2437738206     0.0081589115    -1.2679818795
    5      H       3.3046569611    -0.0117040554    -1.4901749998
    6      C       1.2219696810     0.0094425129    -2.2640351870
    7      H       1.4106760452    -0.0232186796    -3.3310803564
    8      C      -0.0520549468     0.0401749093    -1.7439585819
    9      C      -1.3248680528     0.0367917711    -2.4681365535
   10      C      -1.8667786289     1.0410220821    -3.2378684046
   11      H      -1.3645463811     1.9900190731    -3.3878985429
   12      C      -3.1403912253     0.7104873625    -3.7903338622
   13      H      -3.7160107000     1.3761539914    -4.4235165090
   14      C      -3.5673758248    -0.5391628292    -3.4240401583
   15      H      -4.4893495389    -1.0369760672    -3.6927819047
   16      S      -2.4139940099    -1.3380197365    -2.4074876035
 ----------------------------------------------------------------

    9   -1104.8379618447      3.58E-09 Convergence criterion met
 Total energy in the final basis set = -1104.8379618447
 Final energy is   -1104.83796184467
 **  OPTIMIZATION CONVERGED  **

                    Orbital Energies (a.u.)
 --------------------------------------------------------------

 Alpha MOs
 -- Occupied --
-88.919 -88.919 -10.236 -10.236 -10.225 -10.225 -10.204 -10.204
-10.203 -10.203  -7.978  -7.978  -5.943  -5.942  -5.939  -5.939
 -5.936  -5.936  -0.898  -0.877  -0.769  -0.744  -0.740  -0.705
 -0.601  -0.570  -0.562  -0.534  -0.523  -0.477  -0.418  -0.414
 -0.412  -0.405  -0.394  -0.375  -0.374  -0.352  -0.349  -0.264
 -0.258  -0.256  -0.231

          Ground-State Mulliken Net Atomic Charges

     Atom                 Charge (a.u.)
  ----------------------------------------
      1 S                     0.036174
      2 C                    -0.035212
      3 H                     0.188927
      4 C                    -0.423006
      5 H                     0.117055
      6 C                     0.340604
      7 H                     0.138933
      8 C                    -0.368820
      9 C                    -0.359566
     10 C                     0.340759
     11 H                     0.138771
     12 C                    -0.421667
     13 H                     0.117113
     14 C                    -0.034234
     15 H                     0.188925
     16 S                     0.035245
  ----------------------------------------
  Sum of atomic charges =    -0.000000

                    Cartesian Multipole Moments
 -----------------------------------------------------------------
    Charge (ESU x 10^10)
                 0.0000
    Dipole Moment (Debye)
         X       0.3444      Y       0.4606      Z      -0.6106
       Tot       0.8388
    Quadrupole Moments (Debye-Ang)
        XX     -64.1142     XY       0.2855     YY     -74.2158
        XZ       4.6658     YZ      -2.6374     ZZ     -67.4845

 Total job time:  56.11s(wall), 56.13s(cpu)
        *  Thank you very much for using Q-Chem.  Have a nice day.  *
