 Q-Chem 4.4, Q-Chem, Inc., Pleasanton, CA (2016)
 Q-Chem 4.4.2 for Intel X86 EM64T Linux

User input:
--------------------------------------------------------------
$molecule
 0  1
 S           0.00238887        0.06077275        0.00183269
 C           1.73707619        0.03315849        0.00323229
 H           2.27612737        0.05289032        0.94042557
 C           2.24169204       -0.01546201       -1.26965798
 H           3.30285780       -0.04005365       -1.48972496
 C           1.22479222       -0.01612968       -2.26811464
 H           1.42674790       -0.02650987       -3.33334501
 C          -0.05393771        0.02880388       -1.75170966
 C          -1.32450815        0.04889988       -2.45636342
 C          -1.66708120        0.72469450       -3.60961264
 H          -0.96553999        1.34417310       -4.15724780
 C          -3.01287171        0.50085102       -4.02147031
 H          -3.45362893        0.94232722       -4.90799525
 C          -3.69157821       -0.34469097       -3.18388425
 H          -4.71339606       -0.69038065       -3.26048837
 S          -2.69739734       -0.86944748       -1.86260825
$end

$rem
         jobtype = opt
        exchange = b3lyp
           basis = 6-31++g**
  max_scf_cycles = 150
      mem_static = 775
       mem_total = 7750
      sym_ignore = true
        symmetry = false
          thresh = 12
$end

$opt
CONSTRAINT
tors 6 8 9 10 -40.0
ENDCONSTRAINT
$end

--------------------------------------------------------------

   14   -1104.8392127049      7.20E-09 Convergence criterion met
 Total energy in the final basis set = -1104.8392127049
   11   -1104.8395920806      5.15E-09 Convergence criterion met
 Total energy in the final basis set = -1104.8395920806
   11   -1104.8396843625      4.72E-09 Convergence criterion met
 Total energy in the final basis set = -1104.8396843625
   10   -1104.8396993462      6.41E-09 Convergence criterion met
 Total energy in the final basis set = -1104.8396993462
    9   -1104.8397024468      5.52E-09 Convergence criterion met
 Total energy in the final basis set = -1104.8397024468

             Standard Nuclear Orientation (Angstroms)
    I     Atom           X                Y                Z
 ----------------------------------------------------------------
    1      S       0.0202873420     0.0787140123     0.0279055030
    2      C       1.7538755310     0.0451743387    -0.0026129193
    3      H       2.3108316439     0.0533903034     0.9242665740
    4      C       2.2355667255     0.0081067481    -1.2851384538
    5      H       3.2926302136    -0.0218087399    -1.5239249594
    6      C       1.1996562571    -0.0107149662    -2.2644610095
    7      H       1.3736460255    -0.0770895893    -3.3322530913
    8      C      -0.0680430499     0.0261295736    -1.7230989257
    9      C      -1.3391613315     0.0315927817    -2.4337128848
   10      C      -1.6536592373     0.7104794280    -3.5921875892
   11      H      -0.9504850453     1.3680180994    -4.0904347747
   12      C      -2.9907265232     0.4885833194    -4.0345468736
   13      H      -3.4166436509     0.9438352919    -4.9214961955
   14      C      -3.6931572891    -0.3462221745    -3.2051738789
   15      H      -4.7208097033    -0.6714037956    -3.2930564430
   16      S      -2.7220648181    -0.8928877809    -1.8768060684
 ----------------------------------------------------------------

    9   -1104.8397033444      3.83E-09 Convergence criterion met
 Total energy in the final basis set = -1104.8397033444
 Final energy is   -1104.83970334444
 **  OPTIMIZATION CONVERGED  **

                    Orbital Energies (a.u.)
 --------------------------------------------------------------

 Alpha MOs
 -- Occupied --
-88.920 -88.920 -10.238 -10.237 -10.225 -10.225 -10.204 -10.204
-10.203 -10.203  -7.979  -7.979  -5.943  -5.943  -5.940  -5.940
 -5.936  -5.936  -0.900  -0.878  -0.771  -0.747  -0.738  -0.705
 -0.603  -0.576  -0.557  -0.534  -0.525  -0.477  -0.420  -0.417
 -0.410  -0.403  -0.398  -0.376  -0.374  -0.356  -0.347  -0.273
 -0.261  -0.261  -0.218

          Ground-State Mulliken Net Atomic Charges

     Atom                 Charge (a.u.)
  ----------------------------------------
      1 S                    -0.017927
      2 C                    -0.062624
      3 H                     0.187084
      4 C                    -0.391512
      5 H                     0.116456
      6 C                     0.262849
      7 H                     0.141405
      8 C                    -0.238565
      9 C                    -0.235886
     10 C                     0.266609
     11 H                     0.141341
     12 C                    -0.391840
     13 H                     0.116501
     14 C                    -0.061763
     15 H                     0.187142
     16 S                    -0.019270
  ----------------------------------------
  Sum of atomic charges =     0.000000

                    Cartesian Multipole Moments
 -----------------------------------------------------------------
    Charge (ESU x 10^10)
                 0.0000
    Dipole Moment (Debye)
         X       0.4476      Y       0.3016      Z      -0.8007
       Tot       0.9657
    Quadrupole Moments (Debye-Ang)
        XX     -63.7441     XY       0.7786     YY     -76.7416
        XZ       3.6189     YZ      -2.8230     ZZ     -64.8211

 Total job time:  49.70s(wall), 49.71s(cpu)
        *  Thank you very much for using Q-Chem.  Have a nice day.  *
