 Q-Chem 4.4, Q-Chem, Inc., Pleasanton, CA (2016)
 Q-Chem 4.4.2 for Intel X86 EM64T Linux

User input:
--------------------------------------------------------------
$molecule
 0  1
 S           0.00238887        0.06077275        0.00183269
 C           1.73707619        0.03315849        0.00323229
 H           2.27612737        0.05289032        0.94042557
 C           2.24169204       -0.01546201       -1.26965798
 H           3.30285780       -0.04005365       -1.48972496
 C           1.22479222       -0.01612968       -2.26811464
 H           1.42674790       -0.02650987       -3.33334501
 C          -0.05393771        0.02880388       -1.75170966
 C          -1.32450815        0.04889988       -2.45636342
 C          -1.93317100       -0.95762694       -3.17780069
 H          -1.49975587       -1.94548650       -3.28781381
 C          -3.19197320       -0.58070848       -3.72937501
 H          -3.81552608       -1.24405170       -4.31780701
 C          -3.54033841        0.70927600       -3.42652868
 H          -4.43590320        1.24740017       -3.70557588
 S          -2.32170939        1.49321864       -2.47263533
$end

$rem
         jobtype = opt
        exchange = b3lyp
           basis = 6-31++g**
  max_scf_cycles = 150
      mem_static = 775
       mem_total = 7750
      sym_ignore = true
        symmetry = false
          thresh = 12
$end

$opt
CONSTRAINT
tors 6 8 9 10 70.0
ENDCONSTRAINT
$end

--------------------------------------------------------------

   14   -1104.8376946859      7.99E-09 Convergence criterion met
 Total energy in the final basis set = -1104.8376946859
   11   -1104.8379193769      6.11E-09 Convergence criterion met
 Total energy in the final basis set = -1104.8379193769
   10   -1104.8379482905      5.01E-09 Convergence criterion met
 Total energy in the final basis set = -1104.8379482905
   10   -1104.8379569923      4.69E-09 Convergence criterion met
 Total energy in the final basis set = -1104.8379569923
   10   -1104.8379617956      6.57E-09 Convergence criterion met
 Total energy in the final basis set = -1104.8379617956
    9   -1104.8379633979      9.57E-09 Convergence criterion met
 Total energy in the final basis set = -1104.8379633979

             Standard Nuclear Orientation (Angstroms)
    I     Atom           X                Y                Z
 ----------------------------------------------------------------
    1      S       0.0130476961     0.0979709161     0.0145174867
    2      C       1.7447700376     0.0407931763     0.0045836005
    3      H       2.2930077137     0.0603174850     0.9367678957
    4      C       2.2417231692    -0.0290369099    -1.2707432707
    5      H       3.3011514230    -0.0714257501    -1.4966963165
    6      C       1.2158068537    -0.0265897189    -2.2625877764
    7      H       1.3996959279    -0.0547180042    -3.3305779436
    8      C      -0.0554316008     0.0278251489    -1.7376969593
    9      C      -1.3301813193     0.0628034908    -2.4576325074
   10      C      -1.9248330166    -0.9455311787    -3.1818455496
   11      H      -1.4687143612    -1.9223647278    -3.2962252231
   12      C      -3.1853311437    -0.5777965299    -3.7408743865
   13      H      -3.7962370473    -1.2408751974    -4.3429762204
   14      C      -3.5505602070     0.7044259865    -3.4237604661
   15      H      -4.4498385435     1.2341122490    -3.7079730251
   16      S      -2.3532162018     1.4884808643    -2.4472408682
 ----------------------------------------------------------------

    9   -1104.8379638499      4.56E-09 Convergence criterion met
 Total energy in the final basis set = -1104.8379638499
 Final energy is   -1104.83796384994
 **  OPTIMIZATION CONVERGED  **

                    Orbital Energies (a.u.)
 --------------------------------------------------------------

 Alpha MOs
 -- Occupied --
-88.919 -88.919 -10.236 -10.236 -10.225 -10.225 -10.204 -10.204
-10.203 -10.203  -7.978  -7.978  -5.943  -5.943  -5.939  -5.939
 -5.936  -5.936  -0.898  -0.877  -0.769  -0.744  -0.740  -0.705
 -0.601  -0.570  -0.562  -0.534  -0.523  -0.477  -0.418  -0.414
 -0.412  -0.405  -0.394  -0.375  -0.374  -0.352  -0.349  -0.264
 -0.258  -0.256  -0.230

          Ground-State Mulliken Net Atomic Charges

     Atom                 Charge (a.u.)
  ----------------------------------------
      1 S                     0.034900
      2 C                    -0.035274
      3 H                     0.188994
      4 C                    -0.424058
      5 H                     0.117037
      6 C                     0.340239
      7 H                     0.139049
      8 C                    -0.365286
      9 C                    -0.357817
     10 C                     0.340218
     11 H                     0.138765
     12 C                    -0.422680
     13 H                     0.117061
     14 C                    -0.034384
     15 H                     0.189050
     16 S                     0.034188
  ----------------------------------------
  Sum of atomic charges =    -0.000000

                    Cartesian Multipole Moments
 -----------------------------------------------------------------
    Charge (ESU x 10^10)
                 0.0000
    Dipole Moment (Debye)
         X       0.3176      Y      -0.5031      Z      -0.5897
       Tot       0.8377
    Quadrupole Moments (Debye-Ang)
        XX     -64.0944     XY      -0.5183     YY     -74.0948
        XZ       4.7831     YZ       2.6400     ZZ     -67.7695

 Total job time:  55.25s(wall), 55.98s(cpu)
        *  Thank you very much for using Q-Chem.  Have a nice day.  *
