 Q-Chem 4.4, Q-Chem, Inc., Pleasanton, CA (2016)
 Q-Chem 4.4.2 for Intel X86 EM64T Linux

User input:
--------------------------------------------------------------
$molecule
 0  1
 S           0.00238887        0.06077275        0.00183269
 C           1.73707619        0.03315849        0.00323229
 H           2.27612737        0.05289032        0.94042557
 C           2.24169204       -0.01546201       -1.26965798
 H           3.30285780       -0.04005365       -1.48972496
 C           1.22479222       -0.01612968       -2.26811464
 H           1.42674790       -0.02650987       -3.33334501
 C          -0.05393771        0.02880388       -1.75170966
 C          -1.32450815        0.04889988       -2.45636342
 C          -2.60320004        0.09383811       -1.93967586
 H          -2.80487143        0.13749987       -0.87513823
 C          -3.61979715        0.11083806       -2.93823785
 H          -4.68043232        0.15360843       -2.71842342
 C          -3.11491669        0.08049702       -4.21154430
 H          -3.65353162        0.09245793       -5.14921810
 S          -1.38144205        0.01267868       -4.21026717
$end

$rem
         jobtype = opt
        exchange = b3lyp
           basis = 6-31++g**
  max_scf_cycles = 150
      mem_static = 775
       mem_total = 7750
      sym_ignore = true
        symmetry = false
          thresh = 12
$end

$opt
CONSTRAINT
tors 6 8 9 10 180.0
ENDCONSTRAINT
$end

--------------------------------------------------------------

   14   -1104.8405272591      4.18E-09 Convergence criterion met
 Total energy in the final basis set = -1104.8405272591
   10   -1104.8405861899      8.02E-09 Convergence criterion met
 Total energy in the final basis set = -1104.8405861899
    9   -1104.8405963595      8.65E-09 Convergence criterion met
 Total energy in the final basis set = -1104.8405963595
    9   -1104.8405985384      2.58E-09 Convergence criterion met
 Total energy in the final basis set = -1104.8405985384

             Standard Nuclear Orientation (Angstroms)
    I     Atom           X                Y                Z
 ----------------------------------------------------------------
    1      S       0.0043057189     0.0730486246     0.0029104170
    2      C       1.7390159464     0.0254214296     0.0034337089
    3      H       2.2768129752     0.0277757694     0.9414570118
    4      C       2.2427309928    -0.0123486723    -1.2695752737
    5      H       3.3032839445    -0.0470345927    -1.4909129330
    6      C       1.2254114910    -0.0032115151    -2.2670220826
    7      H       1.4317000944    -0.0293327005    -3.3312541501
    8      C      -0.0543210476     0.0418825702    -1.7517750667
    9      C      -1.3237186510     0.0622426354    -2.4565444836
   10      C      -2.6034519932     0.1073370425    -1.9412825024
   11      H      -2.8096282589     0.1361824439    -0.8770994870
   12      C      -3.6208521195     0.1134000079    -2.9386652633
   13      H      -4.6814640505     0.1459006333    -2.7172776258
   14      C      -3.1172113447     0.0729491543    -4.2116218471
   15      H      -3.6550960192     0.0672933185    -5.1495806502
   16      S      -1.3824724486     0.0262820611    -4.2111198222
 ----------------------------------------------------------------

    8   -1104.8405990517      6.86E-09 Convergence criterion met
 Total energy in the final basis set = -1104.8405990517
 Final energy is   -1104.84059905175
 **  OPTIMIZATION CONVERGED  **

                    Orbital Energies (a.u.)
 --------------------------------------------------------------

 Alpha MOs
 -- Occupied --
-88.920 -88.920 -10.240 -10.240 -10.225 -10.225 -10.205 -10.205
-10.204 -10.204  -7.979  -7.979  -5.944  -5.944  -5.940  -5.940
 -5.936  -5.936  -0.901  -0.878  -0.772  -0.750  -0.737  -0.706
 -0.605  -0.582  -0.551  -0.535  -0.528  -0.478  -0.421  -0.419
 -0.408  -0.405  -0.403  -0.379  -0.374  -0.358  -0.343  -0.285
 -0.265  -0.258  -0.211

          Ground-State Mulliken Net Atomic Charges

     Atom                 Charge (a.u.)
  ----------------------------------------
      1 S                    -0.157148
      2 C                     0.035673
      3 H                     0.203124
      4 C                    -0.408145
      5 H                     0.122322
      6 C                     0.487674
      7 H                     0.115250
      8 C                    -0.398759
      9 C                    -0.398704
     10 C                     0.487624
     11 H                     0.115249
     12 C                    -0.408115
     13 H                     0.122324
     14 C                     0.035662
     15 H                     0.203123
     16 S                    -0.157154
  ----------------------------------------
  Sum of atomic charges =     0.000000

                    Cartesian Multipole Moments
 -----------------------------------------------------------------
    Charge (ESU x 10^10)
                 0.0000
    Dipole Moment (Debye)
         X      -0.0001      Y      -0.0036      Z       0.0000
       Tot       0.0036
    Quadrupole Moments (Debye-Ang)
        XX     -62.2495     XY      -0.3975     YY     -78.9405
        XZ       2.9607     YZ       0.1675     ZZ     -66.9400

 Total job time:  39.41s(wall), 39.06s(cpu)
        *  Thank you very much for using Q-Chem.  Have a nice day.  *
