 Q-Chem 4.4, Q-Chem, Inc., Pleasanton, CA (2016)
 Q-Chem 4.4.2 for Intel X86 EM64T Linux

User input:
--------------------------------------------------------------
$molecule
 0  1
 S           0.00238887        0.06077275        0.00183269
 C           1.73707619        0.03315849        0.00323229
 H           2.27612737        0.05289032        0.94042557
 C           2.24169204       -0.01546201       -1.26965798
 H           3.30285780       -0.04005365       -1.48972496
 C           1.22479222       -0.01612968       -2.26811464
 H           1.42674790       -0.02650987       -3.33334501
 C          -0.05393771        0.02880388       -1.75170966
 C          -1.32450815        0.04889988       -2.45636342
 C          -2.36849583       -0.85093337       -2.38981801
 H          -2.35207140       -1.72229863       -1.74462743
 C          -3.47246015       -0.50370086       -3.22142915
 H          -4.38251998       -1.08854539       -3.29101800
 C          -3.26879881        0.65863165       -3.91758961
 H          -3.93670542        1.15488512       -4.60832439
 S          -1.71018260        1.34129361       -3.57962005
$end

$rem
         jobtype = opt
        exchange = b3lyp
           basis = 6-31++g**
  max_scf_cycles = 150
      mem_static = 775
       mem_total = 7750
      sym_ignore = true
        symmetry = false
          thresh = 12
$end

$opt
CONSTRAINT
tors 6 8 9 10 120.0
ENDCONSTRAINT
$end

--------------------------------------------------------------

   14   -1104.8386368246      3.54E-09 Convergence criterion met
 Total energy in the final basis set = -1104.8386368246
   11   -1104.8389347542      8.49E-09 Convergence criterion met
 Total energy in the final basis set = -1104.8389347542
   11   -1104.8389984545      5.79E-09 Convergence criterion met
 Total energy in the final basis set = -1104.8389984545
   11   -1104.8390240840      4.26E-09 Convergence criterion met
 Total energy in the final basis set = -1104.8390240840
   10   -1104.8390350165      8.38E-09 Convergence criterion met
 Total energy in the final basis set = -1104.8390350165
   10   -1104.8390400016      4.93E-09 Convergence criterion met
 Total energy in the final basis set = -1104.8390400016
    9   -1104.8390411703      4.91E-09 Convergence criterion met
 Total energy in the final basis set = -1104.8390411703

             Standard Nuclear Orientation (Angstroms)
    I     Atom           X                Y                Z
 ----------------------------------------------------------------
    1      S       0.0133997090     0.0478406976     0.0175734863
    2      C       1.7449509335    -0.0237326800     0.0013337695
    3      H       2.2949959800    -0.0709923154     0.9313781134
    4      C       2.2386049924    -0.0096246054    -1.2773934153
    5      H       3.2970329026    -0.0496086228    -1.5084529499
    6      C       1.2116526750     0.0471992819    -2.2656254625
    7      H       1.3952900784     0.0421555225    -3.3341124705
    8      C      -0.0584311870     0.0876460415    -1.7343389624
    9      C      -1.3448080578     0.0978479386    -2.4275078229
   10      C      -2.3794353815    -0.8073545890    -2.3421832387
   11      H      -2.3451568150    -1.6706073413    -1.6870978993
   12      C      -3.4705205289    -0.5052343397    -3.2098405928
   13      H      -4.3698881014    -1.1064132149    -3.2806675268
   14      C      -3.2564887676     0.6227077839    -3.9587049240
   15      H      -3.9087405016     1.0710187138    -4.6959211037
   16      S      -1.7204555903     1.3428539687    -3.6042907602
 ----------------------------------------------------------------

    8   -1104.8390413769      4.66E-09 Convergence criterion met
 Total energy in the final basis set = -1104.8390413769
 Final energy is   -1104.83904137692
 **  OPTIMIZATION CONVERGED  **

                    Orbital Energies (a.u.)
 --------------------------------------------------------------

 Alpha MOs
 -- Occupied --
-88.920 -88.920 -10.237 -10.237 -10.224 -10.224 -10.204 -10.204
-10.203 -10.203  -7.979  -7.979  -5.943  -5.943  -5.939  -5.939
 -5.936  -5.936  -0.899  -0.878  -0.769  -0.745  -0.739  -0.705
 -0.602  -0.574  -0.558  -0.534  -0.524  -0.478  -0.418  -0.417
 -0.410  -0.405  -0.396  -0.376  -0.374  -0.354  -0.347  -0.265
 -0.262  -0.259  -0.225

          Ground-State Mulliken Net Atomic Charges

     Atom                 Charge (a.u.)
  ----------------------------------------
      1 S                     0.042996
      2 C                    -0.042337
      3 H                     0.187701
      4 C                    -0.389085
      5 H                     0.116614
      6 C                     0.237277
      7 H                     0.136966
      8 C                    -0.292780
      9 C                    -0.287054
     10 C                     0.232880
     11 H                     0.137150
     12 C                    -0.386214
     13 H                     0.116707
     14 C                    -0.042818
     15 H                     0.187691
     16 S                     0.044306
  ----------------------------------------
  Sum of atomic charges =     0.000000

                    Cartesian Multipole Moments
 -----------------------------------------------------------------
    Charge (ESU x 10^10)
                 0.0000
    Dipole Moment (Debye)
         X       0.1290      Y      -0.5234      Z      -0.2478
       Tot       0.5933
    Quadrupole Moments (Debye-Ang)
        XX     -63.7034     XY       1.3582     YY     -75.1753
        XZ       4.5176     YZ      -1.1109     ZZ     -68.3769

 Total job time:  64.76s(wall), 64.75s(cpu)
        *  Thank you very much for using Q-Chem.  Have a nice day.  *
