 Q-Chem 4.4, Q-Chem, Inc., Pleasanton, CA (2016)
 Q-Chem 4.4.2 for Intel X86 EM64T Linux

User input:
--------------------------------------------------------------
$molecule
 0  1
 S           0.00238887        0.06077275        0.00183269
 C           1.73707619        0.03315849        0.00323229
 H           2.27612737        0.05289032        0.94042557
 C           2.24169204       -0.01546201       -1.26965798
 H           3.30285780       -0.04005365       -1.48972496
 C           1.22479222       -0.01612968       -2.26811464
 H           1.42674790       -0.02650987       -3.33334501
 C          -0.05393771        0.02880388       -1.75170966
 C          -1.32450815        0.04889988       -2.45636342
 C          -2.11260676       -1.01100829       -2.85578010
 H          -1.85180807       -2.04436573       -2.65584381
 C          -3.30801312       -0.61184533       -3.52102991
 H          -4.05008809       -1.30705744       -3.89666203
 C          -3.42923403        0.74884447       -3.62573399
 H          -4.23167959        1.32037512       -4.07173299
 S          -2.06953965        1.56739994       -2.92521033
$end

$rem
         jobtype = opt
        exchange = b3lyp
           basis = 6-31++g**
  max_scf_cycles = 150
      mem_static = 775
       mem_total = 7750
      sym_ignore = true
        symmetry = false
          thresh = 12
$end

$opt
CONSTRAINT
tors 6 8 9 10 90.0
ENDCONSTRAINT
$end

--------------------------------------------------------------

   14   -1104.8369492446      6.09E-09 Convergence criterion met
 Total energy in the final basis set = -1104.8369492446
   11   -1104.8372235601      5.52E-09 Convergence criterion met
 Total energy in the final basis set = -1104.8372235601
   10   -1104.8372456330      8.50E-09 Convergence criterion met
 Total energy in the final basis set = -1104.8372456330
    9   -1104.8372491505      5.55E-09 Convergence criterion met
 Total energy in the final basis set = -1104.8372491505

             Standard Nuclear Orientation (Angstroms)
    I     Atom           X                Y                Z
 ----------------------------------------------------------------
    1      S       0.0164403927     0.0730919692     0.0178010452
    2      C       1.7474237557     0.0188799970     0.0047866149
    3      H       2.2978222680     0.0128078637     0.9359777793
    4      C       2.2432974471    -0.0165694155    -1.2725575682
    5      H       3.3022617351    -0.0558163769    -1.5011113147
    6      C       1.2153932002     0.0010759886    -2.2625539624
    7      H       1.3977072361    -0.0189686814    -3.3310780318
    8      C      -0.0544186880     0.0459382883    -1.7355659038
    9      C      -1.3384014970     0.0655942992    -2.4465032684
   10      C      -2.1151135135    -0.9999997461    -2.8383520969
   11      H      -1.8316446507    -2.0270479535    -2.6374559011
   12      C      -3.3075746468    -0.6154120150    -3.5217556165
   13      H      -4.0379603992    -1.3183244286    -3.9060991168
   14      C      -3.4318475967     0.7441907798    -3.6427210312
   15      H      -4.2295493341     1.3031559275    -4.1134054801
   16      S      -2.0935684887     1.5761163536    -2.9248244274
 ----------------------------------------------------------------

    9   -1104.8372498451      3.60E-09 Convergence criterion met
 Total energy in the final basis set = -1104.8372498451
 Final energy is   -1104.83724984509
 **  OPTIMIZATION CONVERGED  **

                    Orbital Energies (a.u.)
 --------------------------------------------------------------

 Alpha MOs
 -- Occupied --
-88.919 -88.919 -10.235 -10.235 -10.224 -10.224 -10.204 -10.204
-10.203 -10.203  -7.978  -7.978  -5.942  -5.942  -5.939  -5.938
 -5.936  -5.935  -0.898  -0.877  -0.768  -0.741  -0.741  -0.705
 -0.600  -0.567  -0.565  -0.534  -0.523  -0.478  -0.417  -0.414
 -0.413  -0.405  -0.393  -0.375  -0.375  -0.351  -0.350  -0.264
 -0.257  -0.243  -0.243

          Ground-State Mulliken Net Atomic Charges

     Atom                 Charge (a.u.)
  ----------------------------------------
      1 S                     0.059991
      2 C                    -0.043659
      3 H                     0.187567
      4 C                    -0.378420
      5 H                     0.118769
      6 C                     0.315730
      7 H                     0.131966
      8 C                    -0.391114
      9 C                    -0.392277
     10 C                     0.313922
     11 H                     0.131666
     12 C                    -0.377697
     13 H                     0.118866
     14 C                    -0.043585
     15 H                     0.187529
     16 S                     0.060744
  ----------------------------------------
  Sum of atomic charges =     0.000000

                    Cartesian Multipole Moments
 -----------------------------------------------------------------
    Charge (ESU x 10^10)
                 0.0000
    Dipole Moment (Debye)
         X       0.2422      Y      -0.5506      Z      -0.4548
       Tot       0.7541
    Quadrupole Moments (Debye-Ang)
        XX     -64.1197     XY       0.3507     YY     -73.5561
        XZ       5.0708     YZ       1.0645     ZZ     -68.7498

 Total job time:  40.78s(wall), 40.54s(cpu)
        *  Thank you very much for using Q-Chem.  Have a nice day.  *
