 Q-Chem 4.4, Q-Chem, Inc., Pleasanton, CA (2016)
 Q-Chem 4.4.2 for Intel X86 EM64T Linux

User input:
--------------------------------------------------------------
$molecule
 0  1
 S           0.00238887        0.06077275        0.00183269
 C           1.73707619        0.03315849        0.00323229
 H           2.27612737        0.05289032        0.94042557
 C           2.24169204       -0.01546201       -1.26965798
 H           3.30285780       -0.04005365       -1.48972496
 C           1.22479222       -0.01612968       -2.26811464
 H           1.42674790       -0.02650987       -3.33334501
 C          -0.05393771        0.02880388       -1.75170966
 C          -1.32450815        0.04889988       -2.45636342
 C          -1.56413539        0.02797616       -3.81510527
 H          -0.76907258       -0.02507099       -4.55055018
 C          -2.94948362        0.04896661       -4.14865348
 H          -3.32543470        0.02891802       -5.16519343
 C          -3.76145477        0.08416475       -3.04565841
 H          -4.84206678        0.09781436       -3.00600201
 S          -2.84128305        0.11001166       -1.57523288
$end

$rem
         jobtype = opt
        exchange = b3lyp
           basis = 6-31++g**
  max_scf_cycles = 150
      mem_static = 775
       mem_total = 7750
      sym_ignore = true
        symmetry = false
          thresh = 12
$end

$opt
CONSTRAINT
tors 6 8 9 10 0.0
ENDCONSTRAINT
$end

--------------------------------------------------------------

   14   -1104.8386092318      8.01E-09 Convergence criterion met
 Total energy in the final basis set = -1104.8386092318
   12   -1104.8389199734      1.74E-09 Convergence criterion met
 Total energy in the final basis set = -1104.8389199734
   10   -1104.8389418896      6.79E-09 Convergence criterion met
 Total energy in the final basis set = -1104.8389418896
    9   -1104.8389461520      4.41E-09 Convergence criterion met
 Total energy in the final basis set = -1104.8389461520
    9   -1104.8389472513      3.36E-09 Convergence criterion met
 Total energy in the final basis set = -1104.8389472513

             Standard Nuclear Orientation (Angstroms)
    I     Atom           X                Y                Z
 ----------------------------------------------------------------
    1      S       0.0291225689     0.0696771665     0.0345632113
    2      C       1.7623538360     0.0307195586    -0.0033314003
    3      H       2.3215369560     0.0384306441     0.9219150714
    4      C       2.2351750940    -0.0075992232    -1.2889756116
    5      H       3.2905161402    -0.0369898553    -1.5351496849
    6      C       1.1958391003    -0.0057986575    -2.2620110209
    7      H       1.3776444921    -0.0333360318    -3.3299142479
    8      C      -0.0727538665     0.0344385745    -1.7160390858
    9      C      -1.3452783397     0.0454731335    -2.4209907170
   10      C      -1.5544376811     0.0180331595    -3.7863279996
   11      H      -0.7451311074    -0.0174978530    -4.5060486744
   12      C      -2.9299465374     0.0408715421    -4.1528855625
   13      H      -3.2807525367     0.0251384753    -5.1785651037
   14      C      -3.7694145964     0.0856928853    -3.0708395406
   15      H      -4.8502233124     0.1108331197    -3.0551808768
   16      S      -2.8839445700     0.1010640418    -1.5800395365
 ----------------------------------------------------------------

    8   -1104.8389475194      4.40E-09 Convergence criterion met
 Total energy in the final basis set = -1104.8389475194
 Final energy is   -1104.83894751940
 **  OPTIMIZATION CONVERGED  **

                    Orbital Energies (a.u.)
 --------------------------------------------------------------

 Alpha MOs
 -- Occupied --
-88.920 -88.920 -10.240 -10.240 -10.225 -10.225 -10.205 -10.205
-10.203 -10.203  -7.980  -7.980  -5.944  -5.944  -5.940  -5.940
 -5.937  -5.937  -0.901  -0.878  -0.772  -0.750  -0.737  -0.705
 -0.604  -0.580  -0.553  -0.533  -0.528  -0.477  -0.422  -0.419
 -0.407  -0.403  -0.402  -0.377  -0.374  -0.360  -0.343  -0.284
 -0.266  -0.257  -0.211

          Ground-State Mulliken Net Atomic Charges

     Atom                 Charge (a.u.)
  ----------------------------------------
      1 S                    -0.160816
      2 C                     0.026268
      3 H                     0.203311
      4 C                    -0.502227
      5 H                     0.117348
      6 C                     0.416854
      7 H                     0.102995
      8 C                    -0.202455
      9 C                    -0.197639
     10 C                     0.407807
     11 H                     0.102439
     12 C                    -0.499822
     13 H                     0.117288
     14 C                     0.024709
     15 H                     0.203353
     16 S                    -0.159414
  ----------------------------------------
  Sum of atomic charges =    -0.000000

                    Cartesian Multipole Moments
 -----------------------------------------------------------------
    Charge (ESU x 10^10)
                -0.0000
    Dipole Moment (Debye)
         X       0.5066      Y      -0.0330      Z      -0.9155
       Tot       1.0468
    Quadrupole Moments (Debye-Ang)
        XX     -63.3820     XY      -0.2565     YY     -78.9212
        XZ       2.7193     YZ       0.2415     ZZ     -62.7647

 Total job time:  49.71s(wall), 49.87s(cpu)
        *  Thank you very much for using Q-Chem.  Have a nice day.  *
