 Q-Chem 4.4, Q-Chem, Inc., Pleasanton, CA (2016)
 Q-Chem 4.4.2 for Intel X86 EM64T Linux

User input:
--------------------------------------------------------------
$molecule
 0  1
 S           0.00238887        0.06077275        0.00183269
 C           1.73707619        0.03315849        0.00323229
 H           2.27612737        0.05289032        0.94042557
 C           2.24169204       -0.01546201       -1.26965798
 H           3.30285780       -0.04005365       -1.48972496
 C           1.22479222       -0.01612968       -2.26811464
 H           1.42674790       -0.02650987       -3.33334501
 C          -0.05393771        0.02880388       -1.75170966
 C          -1.32450815        0.04889988       -2.45636342
 C          -2.54806543       -0.44653152       -2.05450058
 H          -2.70091680       -0.92368040       -1.09284395
 C          -3.58658103       -0.23918038       -3.00811244
 H          -4.61324198       -0.55390457       -2.85975274
 C          -3.15375068        0.41399950       -4.13201107
 H          -3.72508858        0.70543623       -5.00271131
 S          -1.45832140        0.77222614       -4.04998349
$end

$rem
         jobtype = opt
        exchange = b3lyp
           basis = 6-31++g**
  max_scf_cycles = 150
      mem_static = 775
       mem_total = 7750
      sym_ignore = true
        symmetry = false
          thresh = 12
$end

$opt
CONSTRAINT
tors 6 8 9 10 150.0
ENDCONSTRAINT
$end

--------------------------------------------------------------

   15   -1104.8404896467      3.06E-09 Convergence criterion met
 Total energy in the final basis set = -1104.8404896467
   11   -1104.8407301755      7.64E-09 Convergence criterion met
 Total energy in the final basis set = -1104.8407301755
   10   -1104.8407737782      3.81E-09 Convergence criterion met
 Total energy in the final basis set = -1104.8407737782
    9   -1104.8407824874      5.18E-09 Convergence criterion met
 Total energy in the final basis set = -1104.8407824874
    8   -1104.8407837681      9.81E-09 Convergence criterion met
 Total energy in the final basis set = -1104.8407837681

             Standard Nuclear Orientation (Angstroms)
    I     Atom           X                Y                Z
 ----------------------------------------------------------------
    1      S       0.0051576198     0.0825281039     0.0058328230
    2      C       1.7385754803     0.0124560706     0.0030628240
    3      H       2.2797703378    -0.0074999068     0.9390299849
    4      C       2.2402789648    -0.0092709277    -1.2718341185
    5      H       3.3002489721    -0.0536773278    -1.4945690922
    6      C       1.2211542113     0.0150205942    -2.2679712410
    7      H       1.4176577666    -0.0241898130    -3.3335052102
    8      C      -0.0555232253     0.0596410637    -1.7473757304
    9      C      -1.3290709941     0.0791210969    -2.4480071165
   10      C      -2.5505990805    -0.4166679011    -2.0414965317
   11      H      -2.6923521530    -0.9189688705    -1.0910340445
   12      C      -3.5861333889    -0.2345755486    -3.0036494466
   13      H      -4.6075834855    -0.5682900118    -2.8609043169
   14      C      -3.1513327409     0.3951905972    -4.1402444168
   15      H      -3.7171011977     0.6496411958    -5.0260401083
   16      S      -1.4658764569     0.7942766950    -4.0446349582
 ----------------------------------------------------------------

    8   -1104.8407841419      4.80E-09 Convergence criterion met
 Total energy in the final basis set = -1104.8407841419
 Final energy is   -1104.84078414193
 **  OPTIMIZATION CONVERGED  **

                    Orbital Energies (a.u.)
 --------------------------------------------------------------

 Alpha MOs
 -- Occupied --
-88.920 -88.920 -10.239 -10.238 -10.225 -10.225 -10.205 -10.204
-10.203 -10.203  -7.979  -7.979  -5.944  -5.944  -5.940  -5.940
 -5.936  -5.936  -0.900  -0.878  -0.771  -0.749  -0.738  -0.706
 -0.604  -0.579  -0.553  -0.534  -0.526  -0.478  -0.420  -0.418
 -0.408  -0.405  -0.400  -0.378  -0.374  -0.357  -0.345  -0.278
 -0.263  -0.260  -0.215

          Ground-State Mulliken Net Atomic Charges

     Atom                 Charge (a.u.)
  ----------------------------------------
      1 S                    -0.058978
      2 C                    -0.038600
      3 H                     0.187923
      4 C                    -0.392010
      5 H                     0.115010
      6 C                     0.306696
      7 H                     0.128477
      8 C                    -0.247804
      9 C                    -0.249536
     10 C                     0.305744
     11 H                     0.128647
     12 C                    -0.391798
     13 H                     0.114913
     14 C                    -0.039035
     15 H                     0.187875
     16 S                    -0.057525
  ----------------------------------------
  Sum of atomic charges =     0.000000

                    Cartesian Multipole Moments
 -----------------------------------------------------------------
    Charge (ESU x 10^10)
                 0.0000
    Dipole Moment (Debye)
         X       0.0323      Y      -0.3266      Z      -0.0688
       Tot       0.3353
    Quadrupole Moments (Debye-Ang)
        XX     -62.6969     XY       1.0641     YY     -77.7622
        XZ       3.4885     YZ      -1.2027     ZZ     -67.3912

 Total job time:  48.39s(wall), 47.00s(cpu)
        *  Thank you very much for using Q-Chem.  Have a nice day.  *
