 Q-Chem 4.4, Q-Chem, Inc., Pleasanton, CA (2016)
 Q-Chem 4.4.2 for Intel X86 EM64T Linux

User input:
--------------------------------------------------------------
$molecule
 0  1
 S           0.00238887        0.06077275        0.00183269
 C           1.73707619        0.03315849        0.00323229
 H           2.27612737        0.05289032        0.94042557
 C           2.24169204       -0.01546201       -1.26965798
 H           3.30285780       -0.04005365       -1.48972496
 C           1.22479222       -0.01612968       -2.26811464
 H           1.42674790       -0.02650987       -3.33334501
 C          -0.05393771        0.02880388       -1.75170966
 C          -1.32450815        0.04889988       -2.45636342
 C          -2.58176614       -0.27476454       -1.98883577
 H          -2.76565983       -0.58584297       -0.96647018
 C          -3.60757867       -0.12761923       -2.96706971
 H          -4.65570196       -0.32840528       -2.77676159
 C          -3.13135054        0.30856869       -4.17540784
 H          -3.68385711        0.51167586       -5.08258215
 S          -1.41115736        0.53071469       -4.14191324
$end

$rem
         jobtype = opt
        exchange = b3lyp
           basis = 6-31++g**
  max_scf_cycles = 150
      mem_static = 775
       mem_total = 7750
      sym_ignore = true
        symmetry = false
          thresh = 12
$end

$opt
CONSTRAINT
tors 6 8 9 10 160.0
ENDCONSTRAINT
$end

--------------------------------------------------------------

   15   -1104.8405742372      3.38E-09 Convergence criterion met
 Total energy in the final basis set = -1104.8405742372
   11   -1104.8407653779      5.37E-09 Convergence criterion met
 Total energy in the final basis set = -1104.8407653779
    9   -1104.8407997661      7.19E-09 Convergence criterion met
 Total energy in the final basis set = -1104.8407997661
    9   -1104.8408072329      5.51E-09 Convergence criterion met
 Total energy in the final basis set = -1104.8408072329
    9   -1104.8408085558      4.03E-09 Convergence criterion met
 Total energy in the final basis set = -1104.8408085558

             Standard Nuclear Orientation (Angstroms)
    I     Atom           X                Y                Z
 ----------------------------------------------------------------
    1      S       0.0046456120     0.0855797398     0.0040988171
    2      C       1.7386100673     0.0208510734     0.0032309878
    3      H       2.2780753566     0.0102643564     0.9402937589
    4      C       2.2413718851    -0.0095699374    -1.2707554077
    5      H       3.3015924691    -0.0517524779    -1.4925813811
    6      C       1.2232220131     0.0059442754    -2.2676656406
    7      H       1.4239171836    -0.0362163388    -3.3323757657
    8      C      -0.0549792469     0.0505290780    -1.7496150788
    9      C      -1.3261609017     0.0713882233    -2.4522775156
   10      C      -2.5829531174    -0.2526103691    -1.9832845679
   11      H      -2.7623706323    -0.5929004886    -0.9694849027
   12      C      -3.6077870617    -0.1228959192    -2.9648287613
   13      H      -4.6529552918    -0.3412638997    -2.7776133045
   14      C      -3.1312020534     0.2961904477    -4.1788201716
   15      H      -3.6805655251     0.4707669026    -5.0937859941
   16      S      -1.4162958365     0.5563926640    -4.1370006721
 ----------------------------------------------------------------

    8   -1104.8408089617      7.40E-09 Convergence criterion met
 Total energy in the final basis set = -1104.8408089617
 Final energy is   -1104.84080896166
 **  OPTIMIZATION CONVERGED  **

                    Orbital Energies (a.u.)
 --------------------------------------------------------------

 Alpha MOs
 -- Occupied --
-88.920 -88.920 -10.239 -10.239 -10.225 -10.225 -10.205 -10.205
-10.203 -10.203  -7.979  -7.979  -5.944  -5.944  -5.940  -5.940
 -5.936  -5.936  -0.900  -0.878  -0.772  -0.749  -0.737  -0.706
 -0.604  -0.581  -0.552  -0.534  -0.527  -0.478  -0.420  -0.418
 -0.408  -0.405  -0.401  -0.378  -0.374  -0.358  -0.344  -0.281
 -0.264  -0.259  -0.213

          Ground-State Mulliken Net Atomic Charges

     Atom                 Charge (a.u.)
  ----------------------------------------
      1 S                    -0.104621
      2 C                     0.015160
      3 H                     0.196466
      4 C                    -0.355824
      5 H                     0.119935
      6 C                     0.372133
      7 H                     0.122517
      8 C                    -0.366108
      9 C                    -0.363170
     10 C                     0.367598
     11 H                     0.122652
     12 C                    -0.353673
     13 H                     0.119945
     14 C                     0.013821
     15 H                     0.196386
     16 S                    -0.103214
  ----------------------------------------
  Sum of atomic charges =     0.000000

                    Cartesian Multipole Moments
 -----------------------------------------------------------------
    Charge (ESU x 10^10)
                 0.0000
    Dipole Moment (Debye)
         X       0.0122      Y      -0.2264      Z      -0.0303
       Tot       0.2287
    Quadrupole Moments (Debye-Ang)
        XX     -62.4120     XY       0.6624     YY     -78.4314
        XZ       3.2105     YZ      -0.8574     ZZ     -67.1362

 Total job time:  48.77s(wall), 47.60s(cpu)
        *  Thank you very much for using Q-Chem.  Have a nice day.  *
