 Q-Chem 4.4, Q-Chem, Inc., Pleasanton, CA (2016)
 Q-Chem 4.4.2 for Intel X86 EM64T Linux

User input:
--------------------------------------------------------------
$molecule
 0  1
 S           0.00238887        0.06077275        0.00183269
 C           1.73707619        0.03315849        0.00323229
 H           2.27612737        0.05289032        0.94042557
 C           2.24169204       -0.01546201       -1.26965798
 H           3.30285780       -0.04005365       -1.48972496
 C           1.22479222       -0.01612968       -2.26811464
 H           1.42674790       -0.02650987       -3.33334501
 C          -0.05393771        0.02880388       -1.75170966
 C          -1.32450815        0.04889988       -2.45636342
 C          -2.60033239       -0.09279835       -1.95016924
 H          -2.80066592       -0.22849695       -0.89315910
 C          -3.61876400       -0.00975265       -2.94353986
 H          -4.67832790       -0.09015457       -2.72916980
 C          -3.11827342        0.19626375       -4.20219017
 H          -3.65976074        0.30525913       -5.13191742
 S          -1.38526871        0.27494170       -4.19588780
$end

$rem
         jobtype = opt
        exchange = b3lyp
           basis = 6-31++g**
  max_scf_cycles = 150
      mem_static = 775
       mem_total = 7750
      sym_ignore = true
        symmetry = false
          thresh = 12
$end

$opt
CONSTRAINT
tors 6 8 9 10 170.0
ENDCONSTRAINT
$end

--------------------------------------------------------------

   14   -1104.8405298621      7.72E-09 Convergence criterion met
 Total energy in the final basis set = -1104.8405298621
   11   -1104.8406560874      4.91E-09 Convergence criterion met
 Total energy in the final basis set = -1104.8406560874
   10   -1104.8406808465      4.93E-09 Convergence criterion met
 Total energy in the final basis set = -1104.8406808465
    9   -1104.8406868220      5.23E-09 Convergence criterion met
 Total energy in the final basis set = -1104.8406868220
    9   -1104.8406883396      6.70E-09 Convergence criterion met
 Total energy in the final basis set = -1104.8406883396

             Standard Nuclear Orientation (Angstroms)
    I     Atom           X                Y                Z
 ----------------------------------------------------------------
    1      S       0.0045693619     0.0846677982     0.0030938779
    2      C       1.7389850148     0.0282940383     0.0032781911
    3      H       2.2773985676     0.0281484790     0.9409659038
    4      C       2.2422385604    -0.0106427898    -1.2700045894
    5      H       3.3026270846    -0.0496176869    -1.4914807198
    6      C       1.2245334297    -0.0031454854    -2.2671993354
    7      H       1.4287963986    -0.0436951460    -3.3313521679
    8      C      -0.0547167104     0.0419947670    -1.7510268331
    9      C      -1.3246703973     0.0629860552    -2.4551489792
   10      C      -2.6010521482    -0.0784820135    -1.9493399570
   11      H      -2.8020752511    -0.2446426205    -0.8968030184
   12      C      -3.6196508895    -0.0051367855    -2.9429593820
   13      H      -4.6780678166    -0.1008374169    -2.7293831591
   14      C      -3.1197471920     0.1913889305    -4.2028952667
   15      H      -3.6595343933     0.2802646522    -5.1356129997
   16      S      -1.3877901689     0.3000873939    -4.1935900752
 ----------------------------------------------------------------

    9   -1104.8406888842      5.50E-09 Convergence criterion met
 Total energy in the final basis set = -1104.8406888842
 Final energy is   -1104.84068888417
 **  OPTIMIZATION CONVERGED  **

                    Orbital Energies (a.u.)
 --------------------------------------------------------------

 Alpha MOs
 -- Occupied --
-88.920 -88.920 -10.240 -10.239 -10.225 -10.225 -10.205 -10.205
-10.204 -10.204  -7.979  -7.979  -5.944  -5.944  -5.940  -5.940
 -5.936  -5.936  -0.901  -0.878  -0.772  -0.750  -0.737  -0.706
 -0.605  -0.581  -0.551  -0.535  -0.527  -0.478  -0.420  -0.419
 -0.408  -0.405  -0.402  -0.379  -0.374  -0.358  -0.343  -0.284
 -0.265  -0.258  -0.212

          Ground-State Mulliken Net Atomic Charges

     Atom                 Charge (a.u.)
  ----------------------------------------
      1 S                    -0.137867
      2 C                     0.019734
      3 H                     0.199814
      4 C                    -0.363230
      5 H                     0.121444
      6 C                     0.421696
      7 H                     0.117653
      8 C                    -0.379885
      9 C                    -0.376124
     10 C                     0.417607
     11 H                     0.117733
     12 C                    -0.361109
     13 H                     0.121542
     14 C                     0.018438
     15 H                     0.199736
     16 S                    -0.137184
  ----------------------------------------
  Sum of atomic charges =     0.000000

                    Cartesian Multipole Moments
 -----------------------------------------------------------------
    Charge (ESU x 10^10)
                 0.0000
    Dipole Moment (Debye)
         X       0.0013      Y      -0.1155      Z      -0.0071
       Tot       0.1157
    Quadrupole Moments (Debye-Ang)
        XX     -62.2590     XY       0.1626     YY     -78.8379
        XZ       3.0246     YZ      -0.3795     ZZ     -66.9811

 Total job time:  48.58s(wall), 48.02s(cpu)
        *  Thank you very much for using Q-Chem.  Have a nice day.  *
