 Q-Chem 4.4, Q-Chem, Inc., Pleasanton, CA (2016)
 Q-Chem 4.4.2 for Intel X86 EM64T Linux

User input:
--------------------------------------------------------------
$molecule
 0  1
 S           0.00238887        0.06077275        0.00183269
 C           1.73707619        0.03315849        0.00323229
 H           2.27612737        0.05289032        0.94042557
 C           2.24169204       -0.01546201       -1.26965798
 H           3.30285780       -0.04005365       -1.48972496
 C           1.22479222       -0.01612968       -2.26811464
 H           1.42674790       -0.02650987       -3.33334501
 C          -0.05393771        0.02880388       -1.75170966
 C          -1.32450815        0.04889988       -2.45636342
 C          -2.43978525       -0.73906010       -2.25808460
 H          -2.49093246       -1.50067406       -1.48792474
 C          -3.51797955       -0.43012202       -3.13725412
 H          -4.47454386       -0.93983782       -3.12084756
 C          -3.22353500        0.59173113       -4.00111332
 H          -3.85346303        1.03200213       -4.76192433
 S          -1.61014049        1.18376784       -3.76449976
$end

$rem
         jobtype = opt
        exchange = b3lyp
           basis = 6-31++g**
  max_scf_cycles = 150
      mem_static = 775
       mem_total = 7750
      sym_ignore = true
        symmetry = false
          thresh = 12
$end

$opt
CONSTRAINT
tors 6 8 9 10 130.0
ENDCONSTRAINT
$end

--------------------------------------------------------------

   14   -1104.8394564158      9.13E-09 Convergence criterion met
 Total energy in the final basis set = -1104.8394564158
   11   -1104.8397516025      7.85E-09 Convergence criterion met
 Total energy in the final basis set = -1104.8397516025
   11   -1104.8398215900      5.70E-09 Convergence criterion met
 Total energy in the final basis set = -1104.8398215900
   10   -1104.8398446429      9.56E-09 Convergence criterion met
 Total energy in the final basis set = -1104.8398446429
   10   -1104.8398528802      4.86E-09 Convergence criterion met
 Total energy in the final basis set = -1104.8398528802
    9   -1104.8398563603      9.05E-09 Convergence criterion met
 Total energy in the final basis set = -1104.8398563603

             Standard Nuclear Orientation (Angstroms)
    I     Atom           X                Y                Z
 ----------------------------------------------------------------
    1      S       0.0101849564     0.0552689944     0.0147857819
    2      C       1.7423161246    -0.0210698691     0.0014379528
    3      H       2.2899581725    -0.0682188182     0.9328126389
    4      C       2.2378932489    -0.0098070241    -1.2764367845
    5      H       3.2966150713    -0.0526052111    -1.5056119247
    6      C       1.2133050680     0.0463602735    -2.2665640859
    7      H       1.4000866814     0.0343037309    -3.3344501431
    8      C      -0.0585420843     0.0879976181    -1.7372643905
    9      C      -1.3408142799     0.1017647319    -2.4309664255
   10      C      -2.4485925749    -0.6899784066    -2.2173761989
   11      H      -2.4826552478    -1.4494371969    -1.4442814866
   12      C      -3.5154396649    -0.4294373454    -3.1268372196
   13      H      -4.4622313306    -0.9572748176    -3.1136497223
   14      C      -3.2119761371     0.5512132377    -4.0350269205
   15      H      -3.8282516136     0.9385881773    -4.8349567038
   16      S      -1.6189995001     1.1865091354    -3.7806879176
 ----------------------------------------------------------------

    8   -1104.8398571078      8.40E-09 Convergence criterion met
 Total energy in the final basis set = -1104.8398571078
 Final energy is   -1104.83985710783
 **  OPTIMIZATION CONVERGED  **

                    Orbital Energies (a.u.)
 --------------------------------------------------------------

 Alpha MOs
 -- Occupied --
-88.920 -88.920 -10.238 -10.237 -10.225 -10.225 -10.204 -10.204
-10.203 -10.203  -7.979  -7.979  -5.943  -5.943  -5.940  -5.939
 -5.936  -5.936  -0.899  -0.878  -0.770  -0.747  -0.738  -0.705
 -0.602  -0.576  -0.556  -0.534  -0.525  -0.478  -0.418  -0.418
 -0.409  -0.405  -0.397  -0.377  -0.374  -0.355  -0.347  -0.270
 -0.262  -0.260  -0.221

          Ground-State Mulliken Net Atomic Charges

     Atom                 Charge (a.u.)
  ----------------------------------------
      1 S                     0.013053
      2 C                    -0.034464
      3 H                     0.187796
      4 C                    -0.409008
      5 H                     0.115428
      6 C                     0.251030
      7 H                     0.136258
      8 C                    -0.260503
      9 C                    -0.258220
     10 C                     0.246107
     11 H                     0.136276
     12 C                    -0.405363
     13 H                     0.115397
     14 C                    -0.036600
     15 H                     0.187755
     16 S                     0.015059
  ----------------------------------------
  Sum of atomic charges =     0.000000

                    Cartesian Multipole Moments
 -----------------------------------------------------------------
    Charge (ESU x 10^10)
                 0.0000
    Dipole Moment (Debye)
         X       0.0930      Y      -0.4813      Z      -0.1838
       Tot       0.5235
    Quadrupole Moments (Debye-Ang)
        XX     -63.4027     XY       1.4296     YY     -76.0766
        XZ       4.1745     YZ      -1.3726     ZZ     -68.0103

 Total job time:  58.75s(wall), 57.16s(cpu)
        *  Thank you very much for using Q-Chem.  Have a nice day.  *
