 Q-Chem 4.4, Q-Chem, Inc., Pleasanton, CA (2016)
 Q-Chem 4.4.2 for Intel X86 EM64T Linux

User input:
--------------------------------------------------------------
$molecule
 0  1
 S           0.00238887        0.06077275        0.00183269
 C           1.73707619        0.03315849        0.00323229
 H           2.27612737        0.05289032        0.94042557
 C           2.24169204       -0.01546201       -1.26965798
 H           3.30285780       -0.04005365       -1.48972496
 C           1.22479222       -0.01612968       -2.26811464
 H           1.42674790       -0.02650987       -3.33334501
 C          -0.05393771        0.02880388       -1.75170966
 C          -1.32450815        0.04889988       -2.45636342
 C          -1.79883960        0.97274763       -3.36496313
 H          -1.22187262        1.83472752       -3.68106098
 C          -3.09682063        0.66350552       -3.86546218
 H          -3.62334704        1.27107184       -4.59259885
 C          -3.60757264       -0.49396988       -3.33961309
 H          -4.55889298       -0.96461282       -3.54689572
 S          -2.51254250       -1.21860328       -2.20588000
$end

$rem
         jobtype = opt
        exchange = b3lyp
           basis = 6-31++g**
  max_scf_cycles = 150
      mem_static = 775
       mem_total = 7750
      sym_ignore = true
        symmetry = false
          thresh = 12
$end

$opt
CONSTRAINT
tors 6 8 9 10 -60.0
ENDCONSTRAINT
$end

--------------------------------------------------------------

   14   -1104.8381902895      8.95E-09 Convergence criterion met
 Total energy in the final basis set = -1104.8381902895
   11   -1104.8385276721      6.28E-09 Convergence criterion met
 Total energy in the final basis set = -1104.8385276721
   11   -1104.8385967080      2.86E-09 Convergence criterion met
 Total energy in the final basis set = -1104.8385967080
   10   -1104.8386103877      3.52E-09 Convergence criterion met
 Total energy in the final basis set = -1104.8386103877
    9   -1104.8386142555      8.10E-09 Convergence criterion met
 Total energy in the final basis set = -1104.8386142555
    9   -1104.8386157167      6.19E-09 Convergence criterion met
 Total energy in the final basis set = -1104.8386157167

             Standard Nuclear Orientation (Angstroms)
    I     Atom           X                Y                Z
 ----------------------------------------------------------------
    1      S       0.0099254769     0.0497684147     0.0150861287
    2      C       1.7429895274     0.0249779592     0.0043909718
    3      H       2.2901140938     0.0217599605     0.9373390668
    4      C       2.2409819618     0.0125111182    -1.2723383248
    5      H       3.3009842303    -0.0069251189    -1.4988043058
    6      C       1.2155984993     0.0094175865    -2.2642248671
    7      H       1.3998413830    -0.0296076183    -3.3317835155
    8      C      -0.0569013520     0.0381973302    -1.7383069662
    9      C      -1.3275172714     0.0309997383    -2.4603129172
   10      C      -1.7844554834     0.9511299890    -3.3775224008
   11      H      -1.2060006361     1.8231285276    -3.6608080840
   12      C      -3.0835529192     0.6505713784    -3.8850826986
   13      H      -3.6031353682     1.2603768392    -4.6154754077
   14      C      -3.6160793572    -0.4867789479    -3.3366119839
   15      H      -4.5793784606    -0.9378074167    -3.5329453829
   16      S      -2.5300658044    -1.2204831001    -2.2024983826
 ----------------------------------------------------------------

    9   -1104.8386161024      3.22E-09 Convergence criterion met
 Total energy in the final basis set = -1104.8386161024
 Final energy is   -1104.83861610240
 **  OPTIMIZATION CONVERGED  **

                    Orbital Energies (a.u.)
 --------------------------------------------------------------

 Alpha MOs
 -- Occupied --
-88.919 -88.919 -10.237 -10.236 -10.225 -10.225 -10.204 -10.204
-10.203 -10.203  -7.979  -7.979  -5.943  -5.943  -5.939  -5.939
 -5.936  -5.936  -0.899  -0.878  -0.769  -0.745  -0.739  -0.705
 -0.601  -0.572  -0.560  -0.534  -0.524  -0.477  -0.419  -0.415
 -0.412  -0.404  -0.395  -0.375  -0.374  -0.353  -0.349  -0.263
 -0.263  -0.258  -0.226

          Ground-State Mulliken Net Atomic Charges

     Atom                 Charge (a.u.)
  ----------------------------------------
      1 S                     0.021565
      2 C                    -0.043456
      3 H                     0.188614
      4 C                    -0.427959
      5 H                     0.116544
      6 C                     0.315735
      7 H                     0.143231
      8 C                    -0.319417
      9 C                    -0.309752
     10 C                     0.314550
     11 H                     0.143307
     12 C                    -0.425815
     13 H                     0.116612
     14 C                    -0.043866
     15 H                     0.188558
     16 S                     0.021551
  ----------------------------------------
  Sum of atomic charges =     0.000000

                    Cartesian Multipole Moments
 -----------------------------------------------------------------
    Charge (ESU x 10^10)
                -0.0000
    Dipole Moment (Debye)
         X       0.3817      Y       0.4182      Z      -0.6794
       Tot       0.8844
    Quadrupole Moments (Debye-Ang)
        XX     -64.0263     XY       0.5919     YY     -74.9774
        XZ       4.3394     YZ      -3.0007     ZZ     -66.6206

 Total job time:  57.93s(wall), 56.86s(cpu)
        *  Thank you very much for using Q-Chem.  Have a nice day.  *
