 Q-Chem 4.4, Q-Chem, Inc., Pleasanton, CA (2016)
 Q-Chem 4.4.2 for Intel X86 EM64T Linux

User input:
--------------------------------------------------------------
$molecule
 0  1
 S           0.00238887        0.06077275        0.00183269
 C           1.73707619        0.03315849        0.00323229
 H           2.27612737        0.05289032        0.94042557
 C           2.24169204       -0.01546201       -1.26965798
 H           3.30285780       -0.04005365       -1.48972496
 C           1.22479222       -0.01612968       -2.26811464
 H           1.42674790       -0.02650987       -3.33334501
 C          -0.05393771        0.02880388       -1.75170966
 C          -1.32450815        0.04889988       -2.45636342
 C          -1.84896350       -0.88386434       -3.32753271
 H          -1.33417198       -1.80358406       -3.58233340
 C          -3.13730338       -0.53463658       -3.82663696
 H          -3.70502117       -1.15089060       -4.51440301
 C          -3.59206785        0.66046551       -3.33464667
 H          -4.53097300        1.15756333       -3.53671634
 S          -2.44010311        1.38996011       -2.26210290
$end

$rem
         jobtype = opt
        exchange = b3lyp
           basis = 6-31++g**
  max_scf_cycles = 150
      mem_static = 775
       mem_total = 7750
      sym_ignore = true
        symmetry = false
          thresh = 12
$end

$opt
CONSTRAINT
tors 6 8 9 10 60.0
ENDCONSTRAINT
$end

--------------------------------------------------------------

   14   -1104.8384061746      8.34E-09 Convergence criterion met
 Total energy in the final basis set = -1104.8384061746
   11   -1104.8385919761      5.01E-09 Convergence criterion met
 Total energy in the final basis set = -1104.8385919761
   11   -1104.8386206560      2.73E-09 Convergence criterion met
 Total energy in the final basis set = -1104.8386206560
   10   -1104.8386270509      3.94E-09 Convergence criterion met
 Total energy in the final basis set = -1104.8386270509
   10   -1104.8386302858      4.30E-09 Convergence criterion met
 Total energy in the final basis set = -1104.8386302858
    9   -1104.8386313983      8.19E-09 Convergence criterion met
 Total energy in the final basis set = -1104.8386313983

             Standard Nuclear Orientation (Angstroms)
    I     Atom           X                Y                Z
 ----------------------------------------------------------------
    1      S       0.0151660121     0.0928588093     0.0193875401
    2      C       1.7474544696     0.0363555070     0.0024266350
    3      H       2.2988608187     0.0554896410     0.9326593319
    4      C       2.2389803380    -0.0312259398    -1.2750898663
    5      H       3.2975796525    -0.0714567956    -1.5053570158
    6      C       1.2097996291    -0.0246115987    -2.2630675095
    7      H       1.3903051778    -0.0424381168    -3.3318001431
    8      C      -0.0599266848     0.0293914884    -1.7325059550
    9      C      -1.3329310855     0.0650547299    -2.4495491176
   10      C      -1.8389456085    -0.8706598116    -3.3243066308
   11      H      -1.3044755625    -1.7806646124    -3.5722270598
   12      C      -3.1254683045    -0.5301469486    -3.8389813650
   13      H      -3.6785605879    -1.1455615689    -4.5394697432
   14      C      -3.5993079142     0.6542467867    -3.3384413843
   15      H      -4.5414325391     1.1417492826    -3.5497976997
   16      S      -2.4724652709     1.3830026275    -2.2416771271
 ----------------------------------------------------------------

    9   -1104.8386317014      4.00E-09 Convergence criterion met
 Total energy in the final basis set = -1104.8386317014
 Final energy is   -1104.83863170143
 **  OPTIMIZATION CONVERGED  **

                    Orbital Energies (a.u.)
 --------------------------------------------------------------

 Alpha MOs
 -- Occupied --
-88.919 -88.919 -10.237 -10.236 -10.225 -10.225 -10.204 -10.204
-10.203 -10.203  -7.979  -7.979  -5.943  -5.943  -5.939  -5.939
 -5.936  -5.936  -0.899  -0.878  -0.769  -0.745  -0.739  -0.705
 -0.601  -0.572  -0.560  -0.534  -0.524  -0.477  -0.419  -0.415
 -0.412  -0.404  -0.395  -0.375  -0.374  -0.353  -0.349  -0.263
 -0.263  -0.258  -0.226

          Ground-State Mulliken Net Atomic Charges

     Atom                 Charge (a.u.)
  ----------------------------------------
      1 S                     0.021255
      2 C                    -0.043044
      3 H                     0.188639
      4 C                    -0.427758
      5 H                     0.116537
      6 C                     0.316519
      7 H                     0.143207
      8 C                    -0.317879
      9 C                    -0.313070
     10 C                     0.316794
     11 H                     0.143105
     12 C                    -0.427180
     13 H                     0.116609
     14 C                    -0.042620
     15 H                     0.188562
     16 S                     0.020323
  ----------------------------------------
  Sum of atomic charges =    -0.000000

                    Cartesian Multipole Moments
 -----------------------------------------------------------------
    Charge (ESU x 10^10)
                -0.0000
    Dipole Moment (Debye)
         X       0.3573      Y      -0.4647      Z      -0.6605
       Tot       0.8831
    Quadrupole Moments (Debye-Ang)
        XX     -64.0436     XY      -0.8434     YY     -74.7699
        XZ       4.4988     YZ       3.0593     ZZ     -66.9404

 Total job time:  58.42s(wall), 57.35s(cpu)
        *  Thank you very much for using Q-Chem.  Have a nice day.  *
