 Q-Chem 4.4, Q-Chem, Inc., Pleasanton, CA (2016)
 Q-Chem 4.4.2 for Intel X86 EM64T Linux

User input:
--------------------------------------------------------------
$molecule
 0  1
 S           0.00238887        0.06077275        0.00183269
 C           1.73707619        0.03315849        0.00323229
 H           2.27612737        0.05289032        0.94042557
 C           2.24169204       -0.01546201       -1.26965798
 H           3.30285780       -0.04005365       -1.48972496
 C           1.22479222       -0.01612968       -2.26811464
 H           1.42674790       -0.02650987       -3.33334501
 C          -0.05393771        0.02880388       -1.75170966
 C          -1.32450815        0.04889988       -2.45636342
 C          -2.31837192        1.00567861       -2.42724843
 H          -2.23977204        1.91601295       -1.84335501
 C          -3.43197739        0.69444124       -3.26025436
 H          -4.30084585        1.33341705       -3.36921385
 C          -3.28430360       -0.49580374       -3.92255603
 H          -3.96462540       -0.96729104       -4.61850376
 S          -1.78262199       -1.26726977       -3.52339715
$end

$rem
         jobtype = opt
        exchange = b3lyp
           basis = 6-31++g**
  max_scf_cycles = 150
      mem_static = 775
       mem_total = 7750
      sym_ignore = true
        symmetry = false
          thresh = 12
$end

$opt
CONSTRAINT
tors 6 8 9 10 -120.0
ENDCONSTRAINT
$end

--------------------------------------------------------------

   14   -1104.8388375207      3.90E-09 Convergence criterion met
 Total energy in the final basis set = -1104.8388375207
   11   -1104.8389642781      6.84E-09 Convergence criterion met
 Total energy in the final basis set = -1104.8389642781
   11   -1104.8390072799      4.42E-09 Convergence criterion met
 Total energy in the final basis set = -1104.8390072799
   11   -1104.8390336568      5.32E-09 Convergence criterion met
 Total energy in the final basis set = -1104.8390336568
   10   -1104.8390451107      8.26E-09 Convergence criterion met
 Total energy in the final basis set = -1104.8390451107
    9   -1104.8390469080      6.80E-09 Convergence criterion met
 Total energy in the final basis set = -1104.8390469080

             Standard Nuclear Orientation (Angstroms)
    I     Atom           X                Y                Z
 ----------------------------------------------------------------
    1      S       0.0109894658     0.0989187641     0.0105610320
    2      C       1.7439027481     0.0800233633    -0.0000604248
    3      H       2.2931352671     0.1389540352     0.9298075526
    4      C       2.2398434737    -0.0142141402    -1.2745065542
    5      H       3.2995926824    -0.0387060001    -1.5016163003
    6      C       1.2141771552    -0.0599195735    -2.2646371202
    7      H       1.4008210662    -0.1118125528    -3.3313664764
    8      C      -0.0577905311    -0.0119248262    -1.7384350807
    9      C      -1.3409085699     0.0165205083    -2.4370802731
   10      C      -2.3266861063     0.9774389025    -2.3940821721
   11      H      -2.2498083693     1.8628022052    -1.7729873041
   12      C      -3.4290710201     0.6980384904    -3.2550568511
   13      H      -4.2950246294     1.3424783159    -3.3555735316
   14      C      -3.2717763173    -0.4685859619    -3.9573613650
   15      H      -3.9436858953    -0.9110533085    -4.6803218775
   16      S      -1.7769920801    -1.2534028117    -3.5652369634
 ----------------------------------------------------------------

    8   -1104.8390471506      8.46E-09 Convergence criterion met
 Total energy in the final basis set = -1104.8390471506
 Final energy is   -1104.83904715061
 **  OPTIMIZATION CONVERGED  **

                    Orbital Energies (a.u.)
 --------------------------------------------------------------

 Alpha MOs
 -- Occupied --
-88.920 -88.920 -10.237 -10.237 -10.224 -10.224 -10.204 -10.204
-10.203 -10.203  -7.979  -7.979  -5.943  -5.943  -5.939  -5.939
 -5.936  -5.936  -0.899  -0.878  -0.769  -0.745  -0.739  -0.705
 -0.602  -0.574  -0.558  -0.534  -0.524  -0.478  -0.418  -0.417
 -0.410  -0.405  -0.396  -0.376  -0.374  -0.354  -0.347  -0.265
 -0.262  -0.259  -0.225

          Ground-State Mulliken Net Atomic Charges

     Atom                 Charge (a.u.)
  ----------------------------------------
      1 S                     0.043169
      2 C                    -0.042194
      3 H                     0.187717
      4 C                    -0.388990
      5 H                     0.116600
      6 C                     0.235841
      7 H                     0.136997
      8 C                    -0.292609
      9 C                    -0.283595
     10 C                     0.230178
     11 H                     0.137152
     12 C                    -0.386328
     13 H                     0.116691
     14 C                    -0.042589
     15 H                     0.187711
     16 S                     0.044248
  ----------------------------------------
  Sum of atomic charges =     0.000000

                    Cartesian Multipole Moments
 -----------------------------------------------------------------
    Charge (ESU x 10^10)
                 0.0000
    Dipole Moment (Debye)
         X       0.1581      Y       0.5070      Z      -0.2692
       Tot       0.5954
    Quadrupole Moments (Debye-Ang)
        XX     -63.9143     XY      -1.7432     YY     -74.7779
        XZ       4.6577     YZ       1.1038     ZZ     -68.4125

 Total job time:  57.14s(wall), 56.64s(cpu)
        *  Thank you very much for using Q-Chem.  Have a nice day.  *
