 Q-Chem 4.4, Q-Chem, Inc., Pleasanton, CA (2016)
 Q-Chem 4.4.2 for Intel X86 EM64T Linux

User input:
--------------------------------------------------------------
$molecule
 0  1
 S           0.00238887        0.06077275        0.00183269
 C           1.73707619        0.03315849        0.00323229
 H           2.27612737        0.05289032        0.94042557
 C           2.24169204       -0.01546201       -1.26965798
 H           3.30285780       -0.04005365       -1.48972496
 C           1.22479222       -0.01612968       -2.26811464
 H           1.42674790       -0.02650987       -3.33334501
 C          -0.05393771        0.02880388       -1.75170966
 C          -1.32450815        0.04889988       -2.45636342
 C          -2.28855204       -0.93510082       -2.53636606
 H          -2.19604009       -1.88988399       -2.03074889
 C          -3.42123393       -0.55954720       -3.31538848
 H          -4.27896256       -1.20140507       -3.48096238
 C          -3.31920936        0.70802156       -3.82528514
 H          -4.02940024        1.24556817       -4.43859896
 S          -1.82241436        1.45992880       -3.37387014
$end

$rem
         jobtype = opt
        exchange = b3lyp
           basis = 6-31++g**
  max_scf_cycles = 150
      mem_static = 775
       mem_total = 7750
      sym_ignore = true
        symmetry = false
          thresh = 12
$end

$opt
CONSTRAINT
tors 6 8 9 10 110.0
ENDCONSTRAINT
$end

--------------------------------------------------------------

   14   -1104.8377743717      7.26E-09 Convergence criterion met
 Total energy in the final basis set = -1104.8377743717
   11   -1104.8380750552      7.69E-09 Convergence criterion met
 Total energy in the final basis set = -1104.8380750552
   11   -1104.8381266699      5.61E-09 Convergence criterion met
 Total energy in the final basis set = -1104.8381266699
   11   -1104.8381497155      3.90E-09 Convergence criterion met
 Total energy in the final basis set = -1104.8381497155
   10   -1104.8381614003      8.49E-09 Convergence criterion met
 Total energy in the final basis set = -1104.8381614003
   10   -1104.8381668778      5.32E-09 Convergence criterion met
 Total energy in the final basis set = -1104.8381668778
    9   -1104.8381683036      6.28E-09 Convergence criterion met
 Total energy in the final basis set = -1104.8381683036

             Standard Nuclear Orientation (Angstroms)
    I     Atom           X                Y                Z
 ----------------------------------------------------------------
    1      S       0.0167359410     0.0452549540     0.0204408844
    2      C       1.7478316014    -0.0203606926     0.0016491160
    3      H       2.3000133025    -0.0634229652     0.9307074771
    4      C       2.2397280991    -0.0099264240    -1.2778591933
    5      H       3.2978810839    -0.0475379667    -1.5105795482
    6      C       1.2104502210     0.0426212843    -2.2643573788
    7      H       1.3914122864     0.0403547811    -3.3333166023
    8      C      -0.0582384729     0.0820919408    -1.7317176329
    9      C      -1.3471332568     0.0906159576    -2.4269869726
   10      C      -2.3001926522    -0.9007982627    -2.4872997473
   11      H      -2.1890363757    -1.8450594037    -1.9661882477
   12      C      -3.4199207505    -0.5635473492    -3.3045865622
   13      H      -4.2661527110    -1.2205158313    -3.4706400272
   14      C      -3.3078804329     0.6802827639    -3.8698360959
   15      H      -4.0026222610     1.1796623457    -4.5316166626
   16      S      -1.8354516725     1.4642364280    -3.4024579766
 ----------------------------------------------------------------

    8   -1104.8381685491      4.29E-09 Convergence criterion met
 Total energy in the final basis set = -1104.8381685491
 Final energy is   -1104.83816854913
 **  OPTIMIZATION CONVERGED  **

                    Orbital Energies (a.u.)
 --------------------------------------------------------------

 Alpha MOs
 -- Occupied --
-88.919 -88.919 -10.236 -10.236 -10.224 -10.224 -10.204 -10.204
-10.203 -10.203  -7.979  -7.979  -5.943  -5.943  -5.939  -5.939
 -5.936  -5.936  -0.898  -0.878  -0.769  -0.744  -0.740  -0.705
 -0.601  -0.572  -0.560  -0.534  -0.523  -0.478  -0.417  -0.417
 -0.410  -0.406  -0.395  -0.376  -0.375  -0.353  -0.348  -0.264
 -0.258  -0.257  -0.230

          Ground-State Mulliken Net Atomic Charges

     Atom                 Charge (a.u.)
  ----------------------------------------
      1 S                     0.061169
      2 C                    -0.050040
      3 H                     0.187436
      4 C                    -0.365258
      5 H                     0.118017
      6 C                     0.242075
      7 H                     0.135143
      8 C                    -0.333184
      9 C                    -0.322610
     10 C                     0.237191
     11 H                     0.135283
     12 C                    -0.362785
     13 H                     0.118143
     14 C                    -0.049889
     15 H                     0.187494
     16 S                     0.061814
  ----------------------------------------
  Sum of atomic charges =     0.000000

                    Cartesian Multipole Moments
 -----------------------------------------------------------------
    Charge (ESU x 10^10)
                 0.0000
    Dipole Moment (Debye)
         X       0.1668      Y      -0.5525      Z      -0.3175
       Tot       0.6587
    Quadrupole Moments (Debye-Ang)
        XX     -63.9351     XY       1.1363     YY     -74.3924
        XZ       4.8102     YZ      -0.5973     ZZ     -68.6572

 Total job time:  65.81s(wall), 64.59s(cpu)
        *  Thank you very much for using Q-Chem.  Have a nice day.  *
