 Q-Chem 4.4, Q-Chem, Inc., Pleasanton, CA (2016)
 Q-Chem 4.4.2 for Intel X86 EM64T Linux

User input:
--------------------------------------------------------------
$molecule
 0  1
 S           0.00238887        0.06077275        0.00183269
 C           1.73707619        0.03315849        0.00323229
 H           2.27612737        0.05289032        0.94042557
 C           2.24169204       -0.01546201       -1.26965798
 H           3.30285780       -0.04005365       -1.48972496
 C           1.22479222       -0.01612968       -2.26811464
 H           1.42674790       -0.02650987       -3.33334501
 C          -0.05393771        0.02880388       -1.75170966
 C          -1.32450815        0.04889988       -2.45636342
 C          -1.58556928        0.39657881       -3.76594537
 H          -0.80828419        0.69827185       -4.45921823
 C          -2.96170210        0.28742390       -4.11982162
 H          -3.35016506        0.51093173       -5.10685526
 C          -3.74502092       -0.14390692       -3.08179486
 H          -4.81174129       -0.32140357       -3.07263795
 S          -2.81156773       -0.40802436       -1.64358681
$end

$rem
         jobtype = opt
        exchange = b3lyp
           basis = 6-31++g**
  max_scf_cycles = 150
      mem_static = 775
       mem_total = 7750
      sym_ignore = true
        symmetry = false
          thresh = 12
$end

$opt
CONSTRAINT
tors 6 8 9 10 -20.0
ENDCONSTRAINT
$end

--------------------------------------------------------------

   14   -1104.8389626334      6.37E-09 Convergence criterion met
 Total energy in the final basis set = -1104.8389626334
   11   -1104.8393675274      9.37E-09 Convergence criterion met
 Total energy in the final basis set = -1104.8393675274
   11   -1104.8394558961      4.00E-09 Convergence criterion met
 Total energy in the final basis set = -1104.8394558961
   10   -1104.8394931847      9.03E-09 Convergence criterion met
 Total energy in the final basis set = -1104.8394931847
   10   -1104.8395061737      6.86E-09 Convergence criterion met
 Total energy in the final basis set = -1104.8395061737
   10   -1104.8395119632      3.13E-09 Convergence criterion met
 Total energy in the final basis set = -1104.8395119632
    9   -1104.8395134932      5.61E-09 Convergence criterion met
 Total energy in the final basis set = -1104.8395134932

             Standard Nuclear Orientation (Angstroms)
    I     Atom           X                Y                Z
 ----------------------------------------------------------------
    1      S       0.0281632534     0.1113807334     0.0328630593
    2      C       1.7611906284     0.0570551413    -0.0057986251
    3      H       2.3221031777     0.0744706989     0.9183910543
    4      C       2.2339744374    -0.0092558671    -1.2904110860
    5      H       3.2891217023    -0.0531354690    -1.5353682793
    6      C       1.1934761330    -0.0318364715    -2.2631283855
    7      H       1.3677623576    -0.1134463958    -3.3296930452
    8      C      -0.0730143060     0.0202645759    -1.7161981020
    9      C      -1.3453118337     0.0497035481    -2.4199567557
   10      C      -1.5753844017     0.4072716147    -3.7334981085
   11      H      -0.7923538939     0.7732632634    -4.3875605557
   12      C      -2.9393844934     0.2848256679    -4.1254697484
   13      H      -3.3065006233     0.5303333930    -5.1155638802
   14      C      -3.7465824344    -0.1624569026    -3.1124686747
   15      H      -4.8142075069    -0.3333230022    -3.1274550470
   16      S      -2.8438662366    -0.4588729784    -1.6619690404
 ----------------------------------------------------------------

    9   -1104.8395139157      2.75E-09 Convergence criterion met
 Total energy in the final basis set = -1104.8395139157
 Final energy is   -1104.83951391566
 **  OPTIMIZATION CONVERGED  **

                    Orbital Energies (a.u.)
 --------------------------------------------------------------

 Alpha MOs
 -- Occupied --
-88.920 -88.920 -10.239 -10.239 -10.225 -10.225 -10.205 -10.205
-10.203 -10.203  -7.979  -7.979  -5.944  -5.944  -5.940  -5.940
 -5.937  -5.937  -0.900  -0.878  -0.771  -0.749  -0.737  -0.705
 -0.604  -0.579  -0.554  -0.533  -0.527  -0.477  -0.421  -0.418
 -0.409  -0.403  -0.401  -0.377  -0.374  -0.359  -0.344  -0.280
 -0.264  -0.259  -0.213

          Ground-State Mulliken Net Atomic Charges

     Atom                 Charge (a.u.)
  ----------------------------------------
      1 S                    -0.098090
      2 C                     0.007938
      3 H                     0.195835
      4 C                    -0.351215
      5 H                     0.120213
      6 C                     0.326351
      7 H                     0.121838
      8 C                    -0.325227
      9 C                    -0.322609
     10 C                     0.327866
     11 H                     0.121947
     12 C                    -0.349938
     13 H                     0.120240
     14 C                     0.007973
     15 H                     0.195978
     16 S                    -0.099100
  ----------------------------------------
  Sum of atomic charges =     0.000000

                    Cartesian Multipole Moments
 -----------------------------------------------------------------
    Charge (ESU x 10^10)
                -0.0000
    Dipole Moment (Debye)
         X       0.4936      Y       0.1423      Z      -0.8877
       Tot       1.0256
    Quadrupole Moments (Debye-Ang)
        XX     -63.4667     XY       0.4609     YY     -78.2677
        XZ       3.0065     YZ      -1.6060     ZZ     -63.3343

 Total job time:  67.25s(wall), 66.18s(cpu)
        *  Thank you very much for using Q-Chem.  Have a nice day.  *
