 Q-Chem 4.4, Q-Chem, Inc., Pleasanton, CA (2016)
 Q-Chem 4.4.2 for Intel X86 EM64T Linux

User input:
--------------------------------------------------------------
$molecule
 0  1
 S           0.00238887        0.06077275        0.00183269
 C           1.73707619        0.03315849        0.00323229
 H           2.27612737        0.05289032        0.94042557
 C           2.24169204       -0.01546201       -1.26965798
 H           3.30285780       -0.04005365       -1.48972496
 C           1.22479222       -0.01612968       -2.26811464
 H           1.42674790       -0.02650987       -3.33334501
 C          -0.05393771        0.02880388       -1.75170966
 C          -1.32450815        0.04889988       -2.45636342
 C          -2.39544806        0.90320961       -2.29119375
 H          -2.39159784        1.71760148       -1.57525441
 C          -3.48217046        0.62969689       -3.17159704
 H          -4.40229884        1.20251373       -3.19001585
 C          -3.23724978       -0.42942693       -4.00550638
 H          -3.87815970       -0.84517289       -4.77092852
 S          -1.67421690       -1.12364194       -3.71476768
$end

$rem
         jobtype = opt
        exchange = b3lyp
           basis = 6-31++g**
  max_scf_cycles = 150
      mem_static = 775
       mem_total = 7750
      sym_ignore = true
        symmetry = false
          thresh = 12
$end

$opt
CONSTRAINT
tors 6 8 9 10 -130.0
ENDCONSTRAINT
$end

--------------------------------------------------------------

   14   -1104.8397254916      8.94E-09 Convergence criterion met
 Total energy in the final basis set = -1104.8397254916
   11   -1104.8398012634      5.45E-09 Convergence criterion met
 Total energy in the final basis set = -1104.8398012634
   11   -1104.8398422912      4.79E-09 Convergence criterion met
 Total energy in the final basis set = -1104.8398422912
   11   -1104.8398607815      4.48E-09 Convergence criterion met
 Total energy in the final basis set = -1104.8398607815
   10   -1104.8398681498      6.04E-09 Convergence criterion met
 Total energy in the final basis set = -1104.8398681498

             Standard Nuclear Orientation (Angstroms)
    I     Atom           X                Y                Z
 ----------------------------------------------------------------
    1      S       0.0074156867     0.0919301478     0.0078263990
    2      C       1.7410896946     0.0774702451     0.0001098057
    3      H       2.2880198676     0.1362479870     0.9312619243
    4      C       2.2391807599    -0.0140267918    -1.2735543473
    5      H       3.2993842226    -0.0360999564    -1.4987229208
    6      C       1.2159309749    -0.0587366677    -2.2657778469
    7      H       1.4059583628    -0.1039591535    -3.3322027249
    8      C      -0.0577857978    -0.0118113016    -1.7415803957
    9      C      -1.3374134730     0.0139575138    -2.4401141938
   10      C      -2.4017995908     0.8714653260    -2.2629773011
   11      H      -2.3977573785     1.6606811812    -1.5195407651
   12      C      -3.4788585676     0.6322044335    -3.1663465005
   13      H      -4.3959096258     1.2101518847    -3.1788820020
   14      C      -3.2260394200    -0.3985407046    -4.0336172850
   15      H      -3.8597369365    -0.7830754509    -4.8212330826
   16      S      -1.6695838291    -1.1067086326    -3.7473375133
 ----------------------------------------------------------------

    9   -1104.8398690506      4.24E-09 Convergence criterion met
 Total energy in the final basis set = -1104.8398690506
 Final energy is   -1104.83986905063
 **  OPTIMIZATION CONVERGED  **

                    Orbital Energies (a.u.)
 --------------------------------------------------------------

 Alpha MOs
 -- Occupied --
-88.920 -88.920 -10.238 -10.237 -10.225 -10.224 -10.204 -10.204
-10.203 -10.203  -7.979  -7.979  -5.943  -5.943  -5.940  -5.940
 -5.936  -5.936  -0.899  -0.878  -0.770  -0.747  -0.738  -0.705
 -0.602  -0.576  -0.556  -0.534  -0.525  -0.478  -0.418  -0.418
 -0.409  -0.405  -0.397  -0.377  -0.374  -0.355  -0.347  -0.270
 -0.262  -0.260  -0.221

          Ground-State Mulliken Net Atomic Charges

     Atom                 Charge (a.u.)
  ----------------------------------------
      1 S                     0.012526
      2 C                    -0.034118
      3 H                     0.187805
      4 C                    -0.409204
      5 H                     0.115401
      6 C                     0.250674
      7 H                     0.136178
      8 C                    -0.261504
      9 C                    -0.255329
     10 C                     0.244546
     11 H                     0.136434
     12 C                    -0.405372
     13 H                     0.115361
     14 C                    -0.036455
     15 H                     0.187780
     16 S                     0.015279
  ----------------------------------------
  Sum of atomic charges =     0.000000

                    Cartesian Multipole Moments
 -----------------------------------------------------------------
    Charge (ESU x 10^10)
                 0.0000
    Dipole Moment (Debye)
         X       0.1194      Y       0.4694      Z      -0.2027
       Tot       0.5250
    Quadrupole Moments (Debye-Ang)
        XX     -63.6137     XY      -1.9041     YY     -75.6573
        XZ       4.3327     YZ       1.4385     ZZ     -68.0808

 Total job time:  50.79s(wall), 50.72s(cpu)
        *  Thank you very much for using Q-Chem.  Have a nice day.  *
