 Q-Chem 4.4, Q-Chem, Inc., Pleasanton, CA (2016)
 Q-Chem 4.4.2 for Intel X86 EM64T Linux

User input:
--------------------------------------------------------------
$molecule
 0  1
 S           0.00238887        0.06077275        0.00183269
 C           1.73707619        0.03315849        0.00323229
 H           2.27612737        0.05289032        0.94042557
 C           2.24169204       -0.01546201       -1.26965798
 H           3.30285780       -0.04005365       -1.48972496
 C           1.22479222       -0.01612968       -2.26811464
 H           1.42674790       -0.02650987       -3.33334501
 C          -0.05393771        0.02880388       -1.75170966
 C          -1.32450815        0.04889988       -2.45636342
 C          -2.14538416        1.12225616       -2.73584027
 H          -1.89987733        2.13899715       -2.44986434
 C          -3.31982210        0.76651273       -3.46042763
 H          -4.07414174        1.47916639       -3.77383037
 C          -3.39086634       -0.57437531       -3.73265213
 H          -4.16048043       -1.11195376       -4.26948061
 S          -2.02580070       -1.43028009       -3.08956732
$end

$rem
         jobtype = opt
        exchange = b3lyp
           basis = 6-31++g**
  max_scf_cycles = 150
      mem_static = 775
       mem_total = 7750
      sym_ignore = true
        symmetry = false
          thresh = 12
$end

$opt
CONSTRAINT
tors 6 8 9 10 -100.0
ENDCONSTRAINT
$end

--------------------------------------------------------------

   14   -1104.8372861246      8.56E-09 Convergence criterion met
 Total energy in the final basis set = -1104.8372861246
   11   -1104.8375063038      4.57E-09 Convergence criterion met
 Total energy in the final basis set = -1104.8375063038
   10   -1104.8375292580      8.84E-09 Convergence criterion met
 Total energy in the final basis set = -1104.8375292580
   10   -1104.8375376561      6.48E-09 Convergence criterion met
 Total energy in the final basis set = -1104.8375376561
   10   -1104.8375428001      6.32E-09 Convergence criterion met
 Total energy in the final basis set = -1104.8375428001
    9   -1104.8375442654      7.32E-09 Convergence criterion met
 Total energy in the final basis set = -1104.8375442654

             Standard Nuclear Orientation (Angstroms)
    I     Atom           X                Y                Z
 ----------------------------------------------------------------
    1      S       0.0131659774     0.0860978387     0.0116591783
    2      C       1.7448150300     0.0548708505     0.0040077724
    3      H       2.2931391800     0.0894838616     0.9357643263
    4      C       2.2437842954    -0.0106595696    -1.2710814154
    5      H       3.3038344736    -0.0364676771    -1.4966100176
    6      C       1.2186252484    -0.0328505508    -2.2633922737
    7      H       1.4048063475    -0.0764157821    -3.3305670949
    8      C      -0.0530927431     0.0124932887    -1.7401703218
    9      C      -1.3366405027     0.0351778256    -2.4498851021
   10      C      -2.1485952262     1.1121253548    -2.7217250589
   11      H      -1.9037154877     2.1181692561    -2.3999634643
   12      C      -3.3190157612     0.7698766027    -3.4628849606
   13      H      -4.0715591422     1.4874199854    -3.7696669803
   14      C      -3.3885072794    -0.5677989581    -3.7539855343
   15      H      -4.1577201159    -1.0935070288    -4.3036761738
   16      S      -2.0264605641    -1.4313219176    -3.1229106693
 ----------------------------------------------------------------

    9   -1104.8375448316      4.12E-09 Convergence criterion met
 Total energy in the final basis set = -1104.8375448316
 Final energy is   -1104.83754483158
 **  OPTIMIZATION CONVERGED  **

                    Orbital Energies (a.u.)
 --------------------------------------------------------------

 Alpha MOs
 -- Occupied --
-88.919 -88.919 -10.236 -10.235 -10.224 -10.224 -10.204 -10.204
-10.203 -10.203  -7.978  -7.978  -5.943  -5.942  -5.939  -5.939
 -5.936  -5.936  -0.898  -0.877  -0.768  -0.743  -0.740  -0.705
 -0.600  -0.569  -0.562  -0.534  -0.523  -0.478  -0.417  -0.415
 -0.411  -0.406  -0.394  -0.375  -0.375  -0.352  -0.349  -0.264
 -0.257  -0.250  -0.236

          Ground-State Mulliken Net Atomic Charges

     Atom                 Charge (a.u.)
  ----------------------------------------
      1 S                     0.065726
      2 C                    -0.051013
      3 H                     0.187190
      4 C                    -0.361415
      5 H                     0.118936
      6 C                     0.275191
      7 H                     0.132648
      8 C                    -0.368662
      9 C                    -0.364322
     10 C                     0.271801
     11 H                     0.132492
     12 C                    -0.360097
     13 H                     0.118961
     14 C                    -0.051162
     15 H                     0.187237
     16 S                     0.066489
  ----------------------------------------
  Sum of atomic charges =     0.000000

                    Cartesian Multipole Moments
 -----------------------------------------------------------------
    Charge (ESU x 10^10)
                 0.0000
    Dipole Moment (Debye)
         X       0.2335      Y       0.5276      Z      -0.4058
       Tot       0.7053
    Quadrupole Moments (Debye-Ang)
        XX     -64.1991     XY      -1.0244     YY     -73.5777
        XZ       5.0547     YZ      -0.3018     ZZ     -68.7667

 Total job time:  57.65s(wall), 55.76s(cpu)
        *  Thank you very much for using Q-Chem.  Have a nice day.  *
