 Q-Chem 4.4, Q-Chem, Inc., Pleasanton, CA (2016)
 Q-Chem 4.4.2 for Intel X86 EM64T Linux

User input:
--------------------------------------------------------------
$molecule
 0  1
 S           0.00238887        0.06077275        0.00183269
 C           1.73707619        0.03315849        0.00323229
 H           2.27612737        0.05289032        0.94042557
 C           2.24169204       -0.01546201       -1.26965798
 H           3.30285780       -0.04005365       -1.48972496
 C           1.22479222       -0.01612968       -2.26811464
 H           1.42674790       -0.02650987       -3.33334501
 C          -0.05393771        0.02880388       -1.75170966
 C          -1.32450815        0.04889988       -2.45636342
 C          -2.23416442        1.07944120       -2.57698044
 H          -2.07418814        2.05791538       -2.13787460
 C          -3.37730757        0.74051315       -3.35751631
 H          -4.19034094        1.42657815       -3.56580984
 C          -3.33603304       -0.54461423       -3.83067402
 H          -4.05969520       -1.05712788       -4.44964422
 S          -1.90101571       -1.37052831       -3.31286472
$end

$rem
         jobtype = opt
        exchange = b3lyp
           basis = 6-31++g**
  max_scf_cycles = 150
      mem_static = 775
       mem_total = 7750
      sym_ignore = true
        symmetry = false
          thresh = 12
$end

$opt
CONSTRAINT
tors 6 8 9 10 -110.0
ENDCONSTRAINT
$end

--------------------------------------------------------------

   14   -1104.8379236704      5.02E-09 Convergence criterion met
 Total energy in the final basis set = -1104.8379236704
   11   -1104.8380996770      5.98E-09 Convergence criterion met
 Total energy in the final basis set = -1104.8380996770
   11   -1104.8381349889      3.97E-09 Convergence criterion met
 Total energy in the final basis set = -1104.8381349889
   11   -1104.8381589850      4.49E-09 Convergence criterion met
 Total energy in the final basis set = -1104.8381589850
   11   -1104.8381727324      4.44E-09 Convergence criterion met
 Total energy in the final basis set = -1104.8381727324
    9   -1104.8381757878      9.95E-09 Convergence criterion met
 Total energy in the final basis set = -1104.8381757878

             Standard Nuclear Orientation (Angstroms)
    I     Atom           X                Y                Z
 ----------------------------------------------------------------
    1      S       0.0138752861     0.0998168588     0.0127926084
    2      C       1.7460682316     0.0758209201     0.0007914570
    3      H       2.2967235308     0.1301129699     0.9301764021
    4      C       2.2411719806    -0.0133912599    -1.2744056395
    5      H       3.3006714148    -0.0391540697    -1.5025532511
    6      C       1.2139371858    -0.0546165693    -2.2635496126
    7      H       1.3983301902    -0.1088858960    -3.3305509351
    8      C      -0.0569092999    -0.0064725494    -1.7367022381
    9      C      -1.3419899125     0.0220243437    -2.4383829904
   10      C      -2.2420712742     1.0580249040    -2.5451670359
   11      H      -2.0847868204     2.0156490699    -2.0617258991
   12      C      -3.3748388723     0.7453108087    -3.3542244871
   13      H      -4.1847433297     1.4378976906    -3.5531705992
   14      C      -3.3253940746    -0.5250607263    -3.8669673540
   15      H      -4.0423111636    -1.0147079362    -4.5121661322
   16      S      -1.8972415626    -1.3638209889    -3.3589835632
 ----------------------------------------------------------------

    9   -1104.8381764061      2.94E-09 Convergence criterion met
 Total energy in the final basis set = -1104.8381764061
 Final energy is   -1104.83817640612
 **  OPTIMIZATION CONVERGED  **

                    Orbital Energies (a.u.)
 --------------------------------------------------------------

 Alpha MOs
 -- Occupied --
-88.919 -88.919 -10.236 -10.236 -10.224 -10.224 -10.204 -10.204
-10.203 -10.203  -7.979  -7.979  -5.943  -5.943  -5.939  -5.939
 -5.936  -5.936  -0.898  -0.878  -0.769  -0.744  -0.740  -0.705
 -0.601  -0.572  -0.560  -0.534  -0.523  -0.478  -0.417  -0.417
 -0.410  -0.406  -0.395  -0.376  -0.375  -0.353  -0.348  -0.264
 -0.258  -0.257  -0.230

          Ground-State Mulliken Net Atomic Charges

     Atom                 Charge (a.u.)
  ----------------------------------------
      1 S                     0.061104
      2 C                    -0.050069
      3 H                     0.187426
      4 C                    -0.364992
      5 H                     0.118030
      6 C                     0.242161
      7 H                     0.135157
      8 C                    -0.334882
      9 C                    -0.321290
     10 C                     0.237821
     11 H                     0.135316
     12 C                    -0.363131
     13 H                     0.118066
     14 C                    -0.050094
     15 H                     0.187489
     16 S                     0.061889
  ----------------------------------------
  Sum of atomic charges =     0.000000

                    Cartesian Multipole Moments
 -----------------------------------------------------------------
    Charge (ESU x 10^10)
                 0.0000
    Dipole Moment (Debye)
         X       0.1965      Y       0.5297      Z      -0.3393
       Tot       0.6590
    Quadrupole Moments (Debye-Ang)
        XX     -64.1200     XY      -1.4411     YY     -74.0574
        XZ       4.9162     YZ       0.5263     ZZ     -68.6472

 Total job time:  59.89s(wall), 57.56s(cpu)
        *  Thank you very much for using Q-Chem.  Have a nice day.  *
