 Q-Chem 4.4, Q-Chem, Inc., Pleasanton, CA (2016)
 Q-Chem 4.4.2 for Intel X86 EM64T Linux

User input:
--------------------------------------------------------------
$molecule
 0  1
 S           0.00238887        0.06077275        0.00183269
 C           1.73707619        0.03315849        0.00323229
 H           2.27612737        0.05289032        0.94042557
 C           2.24169204       -0.01546201       -1.26965798
 H           3.30285780       -0.04005365       -1.48972496
 C           1.22479222       -0.01612968       -2.26811464
 H           1.42674790       -0.02650987       -3.33334501
 C          -0.05393771        0.02880388       -1.75170966
 C          -1.32450815        0.04889988       -2.45636342
 C          -1.70428452       -0.65333341       -3.58183077
 H          -1.04889163       -1.35628072       -4.08396951
 C          -3.04291911       -0.38844263       -3.99265318
 H          -3.51424969       -0.85531917       -4.84995617
 C          -3.68007014        0.51216238       -3.18019804
 H          -4.69267309        0.88475621       -3.25293296
 S          -2.64363085        1.06669921       -1.90433842
$end

$rem
         jobtype = opt
        exchange = b3lyp
           basis = 6-31++g**
  max_scf_cycles = 150
      mem_static = 775
       mem_total = 7750
      sym_ignore = true
        symmetry = false
          thresh = 12
$end

$opt
CONSTRAINT
tors 6 8 9 10 40.0
ENDCONSTRAINT
$end

--------------------------------------------------------------

   14   -1104.8394983397      5.51E-09 Convergence criterion met
 Total energy in the final basis set = -1104.8394983397
   11   -1104.8396652698      8.55E-09 Convergence criterion met
 Total energy in the final basis set = -1104.8396652698
   11   -1104.8396959619      5.96E-09 Convergence criterion met
 Total energy in the final basis set = -1104.8396959619
    9   -1104.8396981409      6.01E-09 Convergence criterion met
 Total energy in the final basis set = -1104.8396981409

             Standard Nuclear Orientation (Angstroms)
    I     Atom           X                Y                Z
 ----------------------------------------------------------------
    1      S       0.0233070357     0.0649054355     0.0320665361
    2      C       1.7564575937     0.0176261707    -0.0033733991
    3      H       2.3162573962     0.0261198242     0.9218035581
    4      C       2.2340623837    -0.0262599157    -1.2871975264
    5      H       3.2903441852    -0.0567607147    -1.5292763698
    6      C       1.1960523801    -0.0046453702    -2.2643340790
    7      H       1.3687285622     0.0030275609    -3.3343640000
    8      C      -0.0697745362     0.0412592248    -1.7193614453
    9      C      -1.3428526437     0.0631733663    -2.4261762788
   10      C      -1.6938859283    -0.6508238935    -3.5525979438
   11      H      -1.0234945288    -1.3600650801    -4.0244464194
   12      C      -3.0218534626    -0.3878065023    -4.0000408610
   13      H      -3.4724585717    -0.8616492783    -4.8647932013
   14      C      -3.6813053251     0.5137033421    -3.2060173860
   15      H      -4.6934784208     0.8814944594    -3.3050156328
   16      S      -2.6795886195     1.0733133511    -1.9061797213
 ----------------------------------------------------------------

    9   -1104.8396988950      4.14E-09 Convergence criterion met
 Total energy in the final basis set = -1104.8396988950
 Final energy is   -1104.83969889504
 **  OPTIMIZATION CONVERGED  **

                    Orbital Energies (a.u.)
 --------------------------------------------------------------

 Alpha MOs
 -- Occupied --
-88.920 -88.920 -10.238 -10.238 -10.225 -10.225 -10.204 -10.204
-10.203 -10.203  -7.979  -7.979  -5.943  -5.943  -5.940  -5.940
 -5.936  -5.936  -0.900  -0.878  -0.771  -0.747  -0.738  -0.705
 -0.603  -0.576  -0.557  -0.534  -0.525  -0.477  -0.420  -0.417
 -0.410  -0.403  -0.398  -0.376  -0.374  -0.356  -0.347  -0.273
 -0.261  -0.261  -0.218

          Ground-State Mulliken Net Atomic Charges

     Atom                 Charge (a.u.)
  ----------------------------------------
      1 S                    -0.019016
      2 C                    -0.062360
      3 H                     0.187120
      4 C                    -0.392050
      5 H                     0.116439
      6 C                     0.263804
      7 H                     0.141172
      8 C                    -0.237771
      9 C                    -0.237112
     10 C                     0.268791
     11 H                     0.141199
     12 C                    -0.392392
     13 H                     0.116463
     14 C                    -0.061633
     15 H                     0.187195
     16 S                    -0.019850
  ----------------------------------------
  Sum of atomic charges =     0.000000

                    Cartesian Multipole Moments
 -----------------------------------------------------------------
    Charge (ESU x 10^10)
                -0.0000
    Dipole Moment (Debye)
         X       0.4301      Y      -0.3579      Z      -0.7876
       Tot       0.9661
    Quadrupole Moments (Debye-Ang)
        XX     -63.8005     XY      -1.1369     YY     -76.4904
        XZ       3.7876     YZ       3.0741     ZZ     -65.1105

 Total job time:  42.23s(wall), 42.34s(cpu)
        *  Thank you very much for using Q-Chem.  Have a nice day.  *
