 Q-Chem 4.4, Q-Chem, Inc., Pleasanton, CA (2016)
 Q-Chem 4.4.2 for Intel X86 EM64T Linux

User input:
--------------------------------------------------------------
$molecule
 0  1
 S           0.00238887        0.06077275        0.00183269
 C           1.73707619        0.03315849        0.00323229
 H           2.27612737        0.05289032        0.94042557
 C           2.24169204       -0.01546201       -1.26965798
 H           3.30285780       -0.04005365       -1.48972496
 C           1.22479222       -0.01612968       -2.26811464
 H           1.42674790       -0.02650987       -3.33334501
 C          -0.05393771        0.02880388       -1.75170966
 C          -1.32450815        0.04889988       -2.45636342
 C          -1.96495247        1.11081935       -3.06150517
 H          -1.54636457        2.11076701       -3.08809293
 C          -3.20342338        0.75576886       -3.67061410
 H          -3.83884888        1.45751412       -4.19870752
 C          -3.50313650       -0.57373841       -3.53019817
 H          -4.36686740       -1.11102363       -3.89731505
 S          -2.27929943       -1.41337840       -2.63199841
$end

$rem
         jobtype = opt
        exchange = b3lyp
           basis = 6-31++g**
  max_scf_cycles = 150
      mem_static = 775
       mem_total = 7750
      sym_ignore = true
        symmetry = false
          thresh = 12
$end

$opt
CONSTRAINT
tors 6 8 9 10 -80.0
ENDCONSTRAINT
$end

--------------------------------------------------------------

   14   -1104.8370615407      6.32E-09 Convergence criterion met
 Total energy in the final basis set = -1104.8370615407
   11   -1104.8373580873      6.08E-09 Convergence criterion met
 Total energy in the final basis set = -1104.8373580873
   10   -1104.8373935886      6.71E-09 Convergence criterion met
 Total energy in the final basis set = -1104.8373935886
   10   -1104.8374019216      2.46E-09 Convergence criterion met
 Total energy in the final basis set = -1104.8374019216
    9   -1104.8374043875      6.20E-09 Convergence criterion met
 Total energy in the final basis set = -1104.8374043875

             Standard Nuclear Orientation (Angstroms)
    I     Atom           X                Y                Z
 ----------------------------------------------------------------
    1      S       0.0095968263     0.0573461440     0.0104299971
    2      C       1.7414454645     0.0264451223     0.0069742256
    3      H       2.2861837264     0.0298514731     0.9414715088
    4      C       2.2449953193     0.0019010847    -1.2675108741
    5      H       3.3057730276    -0.0208293831    -1.4898475520
    6      C       1.2226228015     0.0016507082    -2.2632522261
    7      H       1.4106173262    -0.0293554782    -3.3304881838
    8      C      -0.0507770138     0.0372288636    -1.7434796358
    9      C      -1.3270404150     0.0411079173    -2.4661406247
   10      C      -1.9571042187     1.1012415298    -3.0761632707
   11      H      -1.5369781976     2.1007482362    -3.0774424382
   12      C      -3.1987876862     0.7517433686    -3.6867491798
   13      H      -3.8319875602     1.4550525124    -4.2155509134
   14      C      -3.5117654640    -0.5729558722    -3.5269157111
   15      H      -4.3858528565    -1.1014853004    -3.8830989795
   16      S      -2.2905971796    -1.4165919162    -2.6340926123
 ----------------------------------------------------------------

    9   -1104.8374052646      4.39E-09 Convergence criterion met
 Total energy in the final basis set = -1104.8374052646
 Final energy is   -1104.83740526461
 **  OPTIMIZATION CONVERGED  **

                    Orbital Energies (a.u.)
 --------------------------------------------------------------

 Alpha MOs
 -- Occupied --
-88.919 -88.919 -10.236 -10.235 -10.225 -10.225 -10.204 -10.204
-10.203 -10.203  -7.978  -7.978  -5.942  -5.942  -5.939  -5.939
 -5.936  -5.935  -0.898  -0.877  -0.768  -0.743  -0.740  -0.705
 -0.600  -0.567  -0.564  -0.534  -0.523  -0.478  -0.417  -0.414
 -0.413  -0.405  -0.394  -0.375  -0.375  -0.351  -0.350  -0.264
 -0.257  -0.250  -0.236

          Ground-State Mulliken Net Atomic Charges

     Atom                 Charge (a.u.)
  ----------------------------------------
      1 S                     0.049037
      2 C                    -0.036494
      3 H                     0.188397
      4 C                    -0.403262
      5 H                     0.117938
      6 C                     0.339992
      7 H                     0.134358
      8 C                    -0.392763
      9 C                    -0.386166
     10 C                     0.338840
     11 H                     0.134282
     12 C                    -0.401890
     13 H                     0.117898
     14 C                    -0.036731
     15 H                     0.188478
     16 S                     0.048086
  ----------------------------------------
  Sum of atomic charges =     0.000000

                    Cartesian Multipole Moments
 -----------------------------------------------------------------
    Charge (ESU x 10^10)
                 0.0000
    Dipole Moment (Debye)
         X       0.3082      Y       0.4923      Z      -0.5444
       Tot       0.7961
    Quadrupole Moments (Debye-Ang)
        XX     -64.1895     XY      -0.1178     YY     -73.6823
        XZ       4.9199     YZ      -2.0068     ZZ     -68.1556

 Total job time:  49.40s(wall), 48.26s(cpu)
        *  Thank you very much for using Q-Chem.  Have a nice day.  *
