 Q-Chem 4.4, Q-Chem, Inc., Pleasanton, CA (2016)
 Q-Chem 4.4.2 for Intel X86 EM64T Linux

User input:
--------------------------------------------------------------
$molecule
 0  1
 S           0.00238887        0.06077275        0.00183269
 C           1.73707619        0.03315849        0.00323229
 H           2.27612737        0.05289032        0.94042557
 C           2.24169204       -0.01546201       -1.26965798
 H           3.30285780       -0.04005365       -1.48972496
 C           1.22479222       -0.01612968       -2.26811464
 H           1.42674790       -0.02650987       -3.33334501
 C          -0.05393771        0.02880388       -1.75170966
 C          -1.32450815        0.04889988       -2.45636342
 C          -2.05472866        1.13282256       -2.89900103
 H          -1.72213594        2.15679461       -2.76984460
 C          -3.26126766        0.77165000       -3.56586141
 H          -3.95577893        1.48958389       -3.98695482
 C          -3.44713742       -0.58418270       -3.63146872
 H          -4.26391881       -1.13010283       -4.08348711
 S          -2.15318545       -1.44470960       -2.86028972
$end

$rem
         jobtype = opt
        exchange = b3lyp
           basis = 6-31++g**
  max_scf_cycles = 150
      mem_static = 775
       mem_total = 7750
      sym_ignore = true
        symmetry = false
          thresh = 12
$end

$opt
CONSTRAINT
tors 6 8 9 10 -90.0
ENDCONSTRAINT
$end

--------------------------------------------------------------

   14   -1104.8369532620      7.35E-09 Convergence criterion met
 Total energy in the final basis set = -1104.8369532620
   11   -1104.8372169333      5.64E-09 Convergence criterion met
 Total energy in the final basis set = -1104.8372169333
   10   -1104.8372418984      7.20E-09 Convergence criterion met
 Total energy in the final basis set = -1104.8372418984
    9   -1104.8372472857      6.17E-09 Convergence criterion met
 Total energy in the final basis set = -1104.8372472857
    9   -1104.8372488667      4.06E-09 Convergence criterion met
 Total energy in the final basis set = -1104.8372488667

             Standard Nuclear Orientation (Angstroms)
    I     Atom           X                Y                Z
 ----------------------------------------------------------------
    1      S       0.0124426096     0.0734914295     0.0120397717
    2      C       1.7439855591     0.0409660324     0.0057283214
    3      H       2.2911546483     0.0608717150     0.9386214240
    4      C       2.2448246508    -0.0054913025    -1.2693423500
    5      H       3.3050972868    -0.0311920680    -1.4937520766
    6      C       1.2204032200    -0.0162424918    -2.2628980112
    7      H       1.4067002761    -0.0537034918    -3.3302580180
    8      C      -0.0517293806     0.0252958747    -1.7410586621
    9      C      -1.3324671313     0.0398063754    -2.4577394186
   10      C      -2.0529075281     1.1256060108    -2.8988219199
   11      H      -1.7201317048     2.1448387212    -2.7377896254
   12      C      -3.2589970237     0.7727501581    -3.5752890851
   13      H      -3.9520048451     1.4945057928    -3.9924534283
   14      C      -3.4499686212    -0.5828491914    -3.6420043012
   15      H      -4.2720508395    -1.1205052508    -4.0952761089
   16      S      -2.1592675161    -1.4499222737    -2.8800390419
 ----------------------------------------------------------------

    9   -1104.8372492656      2.64E-09 Convergence criterion met
 Total energy in the final basis set = -1104.8372492656
 Final energy is   -1104.83724926556
 **  OPTIMIZATION CONVERGED  **

                    Orbital Energies (a.u.)
 --------------------------------------------------------------

 Alpha MOs
 -- Occupied --
-88.919 -88.919 -10.235 -10.235 -10.224 -10.224 -10.204 -10.204
-10.203 -10.203  -7.978  -7.978  -5.942  -5.942  -5.939  -5.939
 -5.936  -5.935  -0.898  -0.877  -0.768  -0.741  -0.741  -0.705
 -0.600  -0.567  -0.565  -0.534  -0.523  -0.478  -0.417  -0.414
 -0.412  -0.405  -0.393  -0.375  -0.375  -0.351  -0.350  -0.264
 -0.257  -0.243  -0.243

          Ground-State Mulliken Net Atomic Charges

     Atom                 Charge (a.u.)
  ----------------------------------------
      1 S                     0.060525
      2 C                    -0.044024
      3 H                     0.187548
      4 C                    -0.376863
      5 H                     0.118783
      6 C                     0.314242
      7 H                     0.131889
      8 C                    -0.391841
      9 C                    -0.390490
     10 C                     0.311928
     11 H                     0.131765
     12 C                    -0.376244
     13 H                     0.118851
     14 C                    -0.044100
     15 H                     0.187481
     16 S                     0.060549
  ----------------------------------------
  Sum of atomic charges =     0.000000

                    Cartesian Multipole Moments
 -----------------------------------------------------------------
    Charge (ESU x 10^10)
                 0.0000
    Dipole Moment (Debye)
         X       0.2711      Y       0.5167      Z      -0.4768
       Tot       0.7536
    Quadrupole Moments (Debye-Ang)
        XX     -64.2246     XY      -0.5761     YY     -73.4534
        XZ       5.0617     YZ      -1.1620     ZZ     -68.5913

 Total job time:  49.01s(wall), 48.29s(cpu)
        *  Thank you very much for using Q-Chem.  Have a nice day.  *
