 Q-Chem 4.4, Q-Chem, Inc., Pleasanton, CA (2016)
 Q-Chem 4.4.2 for Intel X86 EM64T Linux

User input:
--------------------------------------------------------------
$molecule
 0  1
 S           0.00238887        0.06077275        0.00183269
 C           1.73707619        0.03315849        0.00323229
 H           2.27612737        0.05289032        0.94042557
 C           2.24169204       -0.01546201       -1.26965798
 H           3.30285780       -0.04005365       -1.48972496
 C           1.22479222       -0.01612968       -2.26811464
 H           1.42674790       -0.02650987       -3.33334501
 C          -0.05393771        0.02880388       -1.75170966
 C          -1.32450815        0.04889988       -2.45636342
 C          -2.46305090        0.77514768       -2.17295037
 H          -2.52505239        1.46870960       -1.34171890
 C          -3.52636167        0.54824730       -3.09423814
 H          -4.49161733        1.03784562       -3.03366068
 C          -3.19630131       -0.34750061       -4.07700466
 H          -3.80292531       -0.69448392       -4.90228714
 S          -1.57909425       -0.94400887       -3.88116163
$end

$rem
         jobtype = opt
        exchange = b3lyp
           basis = 6-31++g**
  max_scf_cycles = 150
      mem_static = 775
       mem_total = 7750
      sym_ignore = true
        symmetry = false
          thresh = 12
$end

$opt
CONSTRAINT
tors 6 8 9 10 -140.0
ENDCONSTRAINT
$end

--------------------------------------------------------------

   15   -1104.8404012912      3.26E-09 Convergence criterion met
 Total energy in the final basis set = -1104.8404012912
   10   -1104.8404314625      3.54E-09 Convergence criterion met
 Total energy in the final basis set = -1104.8404314625
   10   -1104.8404499567      7.62E-09 Convergence criterion met
 Total energy in the final basis set = -1104.8404499567
   10   -1104.8404558322      6.56E-09 Convergence criterion met
 Total energy in the final basis set = -1104.8404558322
    9   -1104.8404581312      9.03E-09 Convergence criterion met
 Total energy in the final basis set = -1104.8404581312

             Standard Nuclear Orientation (Angstroms)
    I     Atom           X                Y                Z
 ----------------------------------------------------------------
    1      S       0.0051249777     0.0784014401     0.0058730992
    2      C       1.7394008991     0.0615397866     0.0014034431
    3      H       2.2834496030     0.1074977809     0.9348741485
    4      C       2.2397701538    -0.0146844753    -1.2721771744
    5      H       3.3003500875    -0.0361422263    -1.4955425079
    6      C       1.2189356933    -0.0446573864    -2.2668679322
    7      H       1.4131809534    -0.0748886364    -3.3330768615
    8      C      -0.0566771493     0.0018609178    -1.7452534040
    9      C      -1.3321756321     0.0241197908    -2.4460043387
   10      C      -2.4671386169     0.7519230720    -2.1568815412
   11      H      -2.5282197896     1.4288502000    -1.3120908652
   12      C      -3.5240760909     0.5494518043    -3.0917627884
   13      H      -4.4873112492     1.0428811573    -3.0294588756
   14      C      -3.1887372592    -0.3244118619    -4.0928279501
   15      H      -3.7907582469    -0.6491910823    -4.9304820332
   16      S      -1.5762849637    -0.9322233712    -3.8961710584
 ----------------------------------------------------------------

    8   -1104.8404583386      6.69E-09 Convergence criterion met
 Total energy in the final basis set = -1104.8404583386
 Final energy is   -1104.84045833859
 **  OPTIMIZATION CONVERGED  **

                    Orbital Energies (a.u.)
 --------------------------------------------------------------

 Alpha MOs
 -- Occupied --
-88.920 -88.920 -10.238 -10.238 -10.225 -10.225 -10.204 -10.204
-10.203 -10.203  -7.979  -7.979  -5.944  -5.943  -5.940  -5.940
 -5.936  -5.936  -0.900  -0.878  -0.771  -0.748  -0.738  -0.705
 -0.603  -0.578  -0.554  -0.534  -0.525  -0.478  -0.419  -0.418
 -0.408  -0.405  -0.399  -0.377  -0.374  -0.356  -0.346  -0.274
 -0.262  -0.261  -0.218

          Ground-State Mulliken Net Atomic Charges

     Atom                 Charge (a.u.)
  ----------------------------------------
      1 S                    -0.021932
      2 C                    -0.033660
      3 H                     0.187749
      4 C                    -0.409240
      5 H                     0.114958
      6 C                     0.277489
      7 H                     0.132937
      8 C                    -0.246017
      9 C                    -0.248627
     10 C                     0.273363
     11 H                     0.132934
     12 C                    -0.407282
     13 H                     0.114860
     14 C                    -0.035442
     15 H                     0.187742
     16 S                    -0.019832
  ----------------------------------------
  Sum of atomic charges =     0.000000

                    Cartesian Multipole Moments
 -----------------------------------------------------------------
    Charge (ESU x 10^10)
                 0.0000
    Dipole Moment (Debye)
         X       0.0825      Y       0.4042      Z      -0.1387
       Tot       0.4352
    Quadrupole Moments (Debye-Ang)
        XX     -63.2466     XY      -1.8968     YY     -76.5551
        XZ       3.9787     YZ       1.5267     ZZ     -67.7651

 Total job time:  48.32s(wall), 47.46s(cpu)
        *  Thank you very much for using Q-Chem.  Have a nice day.  *
