 Q-Chem 4.4, Q-Chem, Inc., Pleasanton, CA (2016)
 Q-Chem 4.4.2 for Intel X86 EM64T Linux

User input:
--------------------------------------------------------------
$molecule
 0  1
 S           0.00238887        0.06077275        0.00183269
 C           1.73707619        0.03315849        0.00323229
 H           2.27612737        0.05289032        0.94042557
 C           2.24169204       -0.01546201       -1.26965798
 H           3.30285780       -0.04005365       -1.48972496
 C           1.22479222       -0.01612968       -2.26811464
 H           1.42674790       -0.02650987       -3.33334501
 C          -0.05393771        0.02880388       -1.75170966
 C          -1.32450815        0.04889988       -2.45636342
 C          -2.56197067        0.45846879       -2.00361819
 H          -2.72130935        0.85103849       -1.00546075
 C          -3.59159078        0.34556404       -2.98240298
 H          -4.62344632        0.62810239       -2.80764354
 C          -3.13747385       -0.14735346       -4.17736923
 H          -3.69488357       -0.32643696       -5.08660230
 S          -1.43976591       -0.49948744       -4.11970909
$end

$rem
         jobtype = opt
        exchange = b3lyp
           basis = 6-31++g**
  max_scf_cycles = 150
      mem_static = 775
       mem_total = 7750
      sym_ignore = true
        symmetry = false
          thresh = 12
$end

$opt
CONSTRAINT
tors 6 8 9 10 -160.0
ENDCONSTRAINT
$end

--------------------------------------------------------------

   15   -1104.8407784142      3.20E-09 Convergence criterion met
 Total energy in the final basis set = -1104.8407784142
    9   -1104.8407799147      4.65E-09 Convergence criterion met
 Total energy in the final basis set = -1104.8407799147

             Standard Nuclear Orientation (Angstroms)
    I     Atom           X                Y                Z
 ----------------------------------------------------------------
    1      S       0.0025735129     0.0615713959     0.0019959324
    2      C       1.7374118619     0.0317345094     0.0032806730
    3      H       2.2761328079     0.0491281816     0.9406707414
    4      C       2.2418707033    -0.0151798987    -1.2695480735
    5      H       3.3029178743    -0.0410382156    -1.4898823164
    6      C       1.2250023699    -0.0144166713    -2.2678350650
    7      H       1.4282700576    -0.0257555925    -3.3328239862
    8      C      -0.0540602649     0.0308112070    -1.7518777496
    9      C      -1.3239741166     0.0507887603    -2.4567225782
   10      C      -2.5617702807     0.4606245602    -2.0046490819
   11      H      -2.7227765996     0.8522264388    -1.0064038978
   12      C      -3.5917351435     0.3457701160    -2.9826325871
   13      H      -4.6238487634     0.6267974677    -2.8070519525
   14      C      -3.1379759802    -0.1482516867    -4.1770396168
   15      H      -3.6955999675    -0.3303148667    -5.0855243743
   16      S      -1.4396419914    -0.4982297456    -4.1201872676
 ----------------------------------------------------------------

    8   -1104.8407801700      5.80E-09 Convergence criterion met
 Total energy in the final basis set = -1104.8407801700
 Final energy is   -1104.84078016996
 **  OPTIMIZATION CONVERGED  **

                    Orbital Energies (a.u.)
 --------------------------------------------------------------

 Alpha MOs
 -- Occupied --
-88.920 -88.920 -10.239 -10.239 -10.225 -10.225 -10.205 -10.205
-10.203 -10.203  -7.979  -7.979  -5.944  -5.944  -5.940  -5.940
 -5.936  -5.936  -0.900  -0.878  -0.772  -0.749  -0.737  -0.706
 -0.604  -0.581  -0.552  -0.534  -0.527  -0.478  -0.420  -0.418
 -0.408  -0.405  -0.401  -0.378  -0.374  -0.358  -0.344  -0.281
 -0.264  -0.259  -0.213

          Ground-State Mulliken Net Atomic Charges

     Atom                 Charge (a.u.)
  ----------------------------------------
      1 S                    -0.103979
      2 C                     0.014692
      3 H                     0.196461
      4 C                    -0.354915
      5 H                     0.119950
      6 C                     0.370220
      7 H                     0.122518
      8 C                    -0.366505
      9 C                    -0.362704
     10 C                     0.369306
     11 H                     0.122703
     12 C                    -0.354188
     13 H                     0.119903
     14 C                     0.014632
     15 H                     0.196412
     16 S                    -0.104506
  ----------------------------------------
  Sum of atomic charges =     0.000000

                    Cartesian Multipole Moments
 -----------------------------------------------------------------
    Charge (ESU x 10^10)
                 0.0000
    Dipole Moment (Debye)
         X       0.0250      Y       0.2216      Z      -0.0386
       Tot       0.2263
    Quadrupole Moments (Debye-Ang)
        XX     -62.5357     XY      -1.3934     YY     -78.1698
        XZ       3.3104     YZ       1.1241     ZZ     -67.2116

 Total job time:  27.19s(wall), 25.80s(cpu)
        *  Thank you very much for using Q-Chem.  Have a nice day.  *
