 Q-Chem 4.4, Q-Chem, Inc., Pleasanton, CA (2016)
 Q-Chem 4.4.2 for Intel X86 EM64T Linux

User input:
--------------------------------------------------------------
$molecule
 0  1
 S           0.00238887        0.06077275        0.00183269
 C           1.73707619        0.03315849        0.00323229
 H           2.27612737        0.05289032        0.94042557
 C           2.24169204       -0.01546201       -1.26965798
 H           3.30285780       -0.04005365       -1.48972496
 C           1.22479222       -0.01612968       -2.26811464
 H           1.42674790       -0.02650987       -3.33334501
 C          -0.05393771        0.02880388       -1.75170966
 C          -1.32450815        0.04889988       -2.45636342
 C          -2.02195127       -1.00044189       -3.01894087
 H          -1.67406669       -2.02656826       -2.97582407
 C          -3.24945867       -0.60670806       -3.62646369
 H          -3.93172527       -1.29663994       -4.10978649
 C          -3.48550511        0.73903708       -3.52455057
 H          -4.33511797        1.30222605       -3.88573949
 S          -2.19692440        1.55297043       -2.69593273
$end

$rem
         jobtype = opt
        exchange = b3lyp
           basis = 6-31++g**
  max_scf_cycles = 150
      mem_static = 775
       mem_total = 7750
      sym_ignore = true
        symmetry = false
          thresh = 12
$end

$opt
CONSTRAINT
tors 6 8 9 10 80.0
ENDCONSTRAINT
$end

--------------------------------------------------------------

   14   -1104.8371035428      6.70E-09 Convergence criterion met
 Total energy in the final basis set = -1104.8371035428
   11   -1104.8373606494      6.23E-09 Convergence criterion met
 Total energy in the final basis set = -1104.8373606494
   10   -1104.8373836771      7.98E-09 Convergence criterion met
 Total energy in the final basis set = -1104.8373836771
    9   -1104.8373884407      6.88E-09 Convergence criterion met
 Total energy in the final basis set = -1104.8373884407
    9   -1104.8373904604      6.99E-09 Convergence criterion met
 Total energy in the final basis set = -1104.8373904604

             Standard Nuclear Orientation (Angstroms)
    I     Atom           X                Y                Z
 ----------------------------------------------------------------
    1      S       0.0158117940     0.0859644192     0.0177972501
    2      C       1.7471573938     0.0331820678     0.0049381279
    3      H       2.2974129812     0.0432406422     0.9361510233
    4      C       2.2427173287    -0.0219190919    -1.2717336082
    5      H       3.3018041657    -0.0613133544    -1.4997229747
    6      C       1.2147475258    -0.0157313656    -2.2617330395
    7      H       1.3961846632    -0.0428738792    -3.3302009517
    8      C      -0.0553086319     0.0326133975    -1.7348365633
    9      C      -1.3347254799     0.0607034903    -2.4514545577
   10      C      -2.0195339155    -0.9918699846    -3.0138073385
   11      H      -1.6483572891    -2.0098421655    -2.9753274512
   12      C      -3.2456869075    -0.6073064741    -3.6347836831
   13      H      -3.9155023125    -1.2998174457    -4.1317450251
   14      C      -3.4918319982     0.7368528805    -3.5302878215
   15      H      -4.3406440126     1.2924638146    -3.9058594832
   16      S      -2.2257581552     1.5558985691    -2.6780569337
 ----------------------------------------------------------------

    9   -1104.8373913745      6.45E-09 Convergence criterion met
 Total energy in the final basis set = -1104.8373913745
 Final energy is   -1104.83739137454
 **  OPTIMIZATION CONVERGED  **

                    Orbital Energies (a.u.)
 --------------------------------------------------------------

 Alpha MOs
 -- Occupied --
-88.919 -88.919 -10.236 -10.235 -10.225 -10.225 -10.204 -10.204
-10.203 -10.203  -7.978  -7.978  -5.942  -5.942  -5.939  -5.939
 -5.936  -5.935  -0.898  -0.877  -0.768  -0.743  -0.740  -0.705
 -0.600  -0.567  -0.564  -0.534  -0.523  -0.478  -0.417  -0.413
 -0.413  -0.405  -0.394  -0.375  -0.375  -0.351  -0.350  -0.264
 -0.257  -0.250  -0.236

          Ground-State Mulliken Net Atomic Charges

     Atom                 Charge (a.u.)
  ----------------------------------------
      1 S                     0.048949
      2 C                    -0.036525
      3 H                     0.188405
      4 C                    -0.402375
      5 H                     0.117961
      6 C                     0.339087
      7 H                     0.134397
      8 C                    -0.388348
      9 C                    -0.389827
     10 C                     0.339794
     11 H                     0.134266
     12 C                    -0.402774
     13 H                     0.117935
     14 C                    -0.037189
     15 H                     0.188383
     16 S                     0.047862
  ----------------------------------------
  Sum of atomic charges =     0.000000

                    Cartesian Multipole Moments
 -----------------------------------------------------------------
    Charge (ESU x 10^10)
                 0.0000
    Dipole Moment (Debye)
         X       0.2819      Y      -0.5308      Z      -0.5271
       Tot       0.7994
    Quadrupole Moments (Debye-Ang)
        XX     -64.1489     XY      -0.0942     YY     -73.6598
        XZ       4.9986     YZ       1.9221     ZZ     -68.3588

 Total job time:  48.06s(wall), 47.67s(cpu)
        *  Thank you very much for using Q-Chem.  Have a nice day.  *
