 Q-Chem 4.4, Q-Chem, Inc., Pleasanton, CA (2016)
 Q-Chem 4.4.2 for Intel X86 EM64T Linux

User input:
--------------------------------------------------------------
$molecule
 0  1
 S           0.00238887        0.06077275        0.00183269
 C           1.73707619        0.03315849        0.00323229
 H           2.27612737        0.05289032        0.94042557
 C           2.24169204       -0.01546201       -1.26965798
 H           3.30285780       -0.04005365       -1.48972496
 C           1.22479222       -0.01612968       -2.26811464
 H           1.42674790       -0.02650987       -3.33334501
 C          -0.05393771        0.02880388       -1.75170966
 C          -1.32450815        0.04889988       -2.45636342
 C          -1.64820904       -0.50356964       -3.67867009
 H          -0.93786328       -1.06447089       -4.27584407
 C          -3.00607248       -0.29276262       -4.05636313
 H          -3.43977962       -0.66188964       -4.97871772
 C          -3.71366908        0.41717585       -3.12232427
 H          -4.75439022        0.71007504       -3.14663173
 S          -2.72258080        0.85651897       -1.76797686
$end

$rem
         jobtype = opt
        exchange = b3lyp
           basis = 6-31++g**
  max_scf_cycles = 150
      mem_static = 775
       mem_total = 7750
      sym_ignore = true
        symmetry = false
          thresh = 12
$end

$opt
CONSTRAINT
tors 6 8 9 10 30.0
ENDCONSTRAINT
$end

--------------------------------------------------------------

   14   -1104.8395116725      4.34E-09 Convergence criterion met
 Total energy in the final basis set = -1104.8395116725
   12   -1104.8397138081      1.35E-09 Convergence criterion met
 Total energy in the final basis set = -1104.8397138081
   11   -1104.8397567852      9.00E-09 Convergence criterion met
 Total energy in the final basis set = -1104.8397567852
   10   -1104.8397650755      3.38E-09 Convergence criterion met
 Total energy in the final basis set = -1104.8397650755
   14   -1104.8397250727      4.36E-09 Convergence criterion met
 Total energy in the final basis set = -1104.8397250727
    9   -1104.8397265653      6.41E-09 Convergence criterion met
 Total energy in the final basis set = -1104.8397265653

             Standard Nuclear Orientation (Angstroms)
    I     Atom           X                Y                Z
 ----------------------------------------------------------------
    1      S       0.0273606951     0.0423505270     0.0365696536
    2      C       1.7607701506     0.0068484104    -0.0057625473
    3      H       2.3234702552     0.0076630190     0.9175873822
    4      C       2.2331005215    -0.0165558203    -1.2921058518
    5      H       3.2885322060    -0.0376407891    -1.5389478920
    6      C       1.1918173835     0.0109597874    -2.2646849313
    7      H       1.3633272438     0.0343994180    -3.3346252877
    8      C      -0.0730336955     0.0474195712    -1.7146188993
    9      C      -1.3475874231     0.0535034525    -2.4161229387
   10      C      -1.6397977405    -0.5176083984    -3.6378393747
   11      H      -0.9175361456    -1.1007988995    -4.1973555225
   12      C      -2.9832341794    -0.2991297119    -4.0599944737
   13      H      -3.3934607890    -0.6801484216    -4.9883574220
   14      C      -3.7129045569     0.4296196533    -3.1574145046
   15      H      -4.7511263839     0.7265409846    -3.2151638166
   16      S      -2.7590255317     0.8800243975    -1.7811165635
 ----------------------------------------------------------------

    9   -1104.8397269231      2.57E-09 Convergence criterion met
 Total energy in the final basis set = -1104.8397269231
 Final energy is   -1104.83972692309
 **  OPTIMIZATION CONVERGED  **

                    Orbital Energies (a.u.)
 --------------------------------------------------------------

 Alpha MOs
 -- Occupied --
-88.920 -88.920 -10.238 -10.238 -10.225 -10.225 -10.205 -10.205
-10.203 -10.203  -7.979  -7.979  -5.943  -5.943  -5.940  -5.940
 -5.936  -5.936  -0.900  -0.878  -0.771  -0.748  -0.738  -0.705
 -0.603  -0.578  -0.555  -0.533  -0.526  -0.477  -0.421  -0.417
 -0.409  -0.403  -0.399  -0.376  -0.374  -0.357  -0.346  -0.277
 -0.263  -0.260  -0.216

          Ground-State Mulliken Net Atomic Charges

     Atom                 Charge (a.u.)
  ----------------------------------------
      1 S                    -0.057927
      2 C                    -0.005296
      3 H                     0.193844
      4 C                    -0.347176
      5 H                     0.120301
      6 C                     0.300461
      7 H                     0.133403
      8 C                    -0.340211
      9 C                    -0.335031
     10 C                     0.301088
     11 H                     0.133292
     12 C                    -0.346268
     13 H                     0.120335
     14 C                    -0.005190
     15 H                     0.193905
     16 S                    -0.059529
  ----------------------------------------
  Sum of atomic charges =     0.000000

                    Cartesian Multipole Moments
 -----------------------------------------------------------------
    Charge (ESU x 10^10)
                -0.0000
    Dipole Moment (Debye)
         X       0.4614      Y      -0.2868      Z      -0.8411
       Tot       1.0013
    Quadrupole Moments (Debye-Ang)
        XX     -63.6590     XY      -1.0905     YY     -77.3318
        XZ       3.4442     YZ       2.6461     ZZ     -64.2515

 Total job time:  60.32s(wall), 60.28s(cpu)
        *  Thank you very much for using Q-Chem.  Have a nice day.  *
