 Q-Chem 4.4, Q-Chem, Inc., Pleasanton, CA (2016)
 Q-Chem 4.4.2 for Intel X86 EM64T Linux

User input:
--------------------------------------------------------------
$molecule
 0  1
 S           0.00238887        0.06077275        0.00183269
 C           1.73707619        0.03315849        0.00323229
 H           2.27612737        0.05289032        0.94042557
 C           2.24169204       -0.01546201       -1.26965798
 H           3.30285780       -0.04005365       -1.48972496
 C           1.22479222       -0.01612968       -2.26811464
 H           1.42674790       -0.02650987       -3.33334501
 C          -0.05393771        0.02880388       -1.75170966
 C          -1.32450815        0.04889988       -2.45636342
 C          -2.50025423       -0.60288023       -2.14516849
 H          -2.60840403       -1.23174421       -1.26844061
 C          -3.55640907       -0.34104636       -3.06542101
 H          -4.55223809       -0.75980077       -2.97562160
 C          -3.18479324        0.50935274       -4.07331845
 H          -3.78220234        0.88065295       -4.89473174
 S          -1.52532776        0.99213782       -3.92289179
$end

$rem
         jobtype = opt
        exchange = b3lyp
           basis = 6-31++g**
  max_scf_cycles = 150
      mem_static = 775
       mem_total = 7750
      sym_ignore = true
        symmetry = false
          thresh = 12
$end

$opt
CONSTRAINT
tors 6 8 9 10 140.0
ENDCONSTRAINT
$end

--------------------------------------------------------------

   15   -1104.8400913605      3.18E-09 Convergence criterion met
 Total energy in the final basis set = -1104.8400913605
   11   -1104.8403643351      9.04E-09 Convergence criterion met
 Total energy in the final basis set = -1104.8403643351
   11   -1104.8404197995      4.75E-09 Convergence criterion met
 Total energy in the final basis set = -1104.8404197995
   10   -1104.8404334647      6.55E-09 Convergence criterion met
 Total energy in the final basis set = -1104.8404334647
    9   -1104.8404368942      5.97E-09 Convergence criterion met
 Total energy in the final basis set = -1104.8404368942
    9   -1104.8404383999      5.43E-09 Convergence criterion met
 Total energy in the final basis set = -1104.8404383999

             Standard Nuclear Orientation (Angstroms)
    I     Atom           X                Y                Z
 ----------------------------------------------------------------
    1      S       0.0075136601     0.0690462857     0.0105909550
    2      C       1.7402904907    -0.0062872121     0.0023107292
    3      H       2.2847735730    -0.0420784750     0.9359630265
    4      C       2.2388200796    -0.0095438543    -1.2742590797
    5      H       3.2981321847    -0.0535580667    -1.5003455072
    6      C       1.2169928109     0.0331183931    -2.2674207435
    7      H       1.4083786505     0.0076735610    -3.3342669040
    8      C      -0.0572322184     0.0760697135    -1.7421021347
    9      C      -1.3348960095     0.0933854246    -2.4389929174
   10      C      -2.5060532694    -0.5602534924    -2.1185498752
   11      H      -2.5996289038    -1.1993621526    -1.2476538640
   12      C      -3.5546977699    -0.3382586984    -3.0582998729
   13      H      -4.5430877082    -0.7754572953    -2.9737622215
   14      C      -3.1773838529     0.4761105473    -4.0940013089
   15      H      -3.7649348646     0.7998744525    -4.9422472912
   16      S      -1.5333790829     1.0025629190    -3.9259818005
 ----------------------------------------------------------------

    8   -1104.8404387448      6.30E-09 Convergence criterion met
 Total energy in the final basis set = -1104.8404387448
 Final energy is   -1104.84043874477
 **  OPTIMIZATION CONVERGED  **

                    Orbital Energies (a.u.)
 --------------------------------------------------------------

 Alpha MOs
 -- Occupied --
-88.920 -88.920 -10.238 -10.238 -10.225 -10.225 -10.204 -10.204
-10.203 -10.203  -7.979  -7.979  -5.944  -5.943  -5.940  -5.940
 -5.936  -5.936  -0.900  -0.878  -0.771  -0.748  -0.738  -0.705
 -0.603  -0.578  -0.554  -0.534  -0.525  -0.478  -0.419  -0.418
 -0.408  -0.405  -0.399  -0.377  -0.374  -0.356  -0.346  -0.274
 -0.262  -0.261  -0.218

          Ground-State Mulliken Net Atomic Charges

     Atom                 Charge (a.u.)
  ----------------------------------------
      1 S                    -0.022119
      2 C                    -0.033916
      3 H                     0.187741
      4 C                    -0.409431
      5 H                     0.114947
      6 C                     0.276916
      7 H                     0.133002
      8 C                    -0.244928
      9 C                    -0.247740
     10 C                     0.272691
     11 H                     0.132927
     12 C                    -0.407537
     13 H                     0.114901
     14 C                    -0.035138
     15 H                     0.187767
     16 S                    -0.020083
  ----------------------------------------
  Sum of atomic charges =     0.000000

                    Cartesian Multipole Moments
 -----------------------------------------------------------------
    Charge (ESU x 10^10)
                 0.0000
    Dipole Moment (Debye)
         X       0.0593      Y      -0.4124      Z      -0.1219
       Tot       0.4340
    Quadrupole Moments (Debye-Ang)
        XX     -63.0439     XY       1.3257     YY     -76.9610
        XZ       3.8202     YZ      -1.3927     ZZ     -67.6815

 Total job time:  58.38s(wall), 56.20s(cpu)
        *  Thank you very much for using Q-Chem.  Have a nice day.  *
