 Q-Chem 4.4, Q-Chem, Inc., Pleasanton, CA (2016)
 Q-Chem 4.4.2 for Intel X86 EM64T Linux

User input:
--------------------------------------------------------------
$molecule
 0  1
 S           0.00238887        0.06077275        0.00183269
 C           1.73707619        0.03315849        0.00323229
 H           2.27612737        0.05289032        0.94042557
 C           2.24169204       -0.01546201       -1.26965798
 H           3.30285780       -0.04005365       -1.48972496
 C           1.22479222       -0.01612968       -2.26811464
 H           1.42674790       -0.02650987       -3.33334501
 C          -0.05393771        0.02880388       -1.75170966
 C          -1.32450815        0.04889988       -2.45636342
 C          -1.72755017        0.86087436       -3.49669654
 H          -1.08301156        1.61310294       -3.93776367
 C          -3.05130122        0.58992669       -3.94963721
 H          -3.53132316        1.12236427       -4.76276929
 C          -3.65283645       -0.42706936       -3.25608938
 H          -4.64213537       -0.84172984       -3.39329577
 S          -2.61258461       -1.06107750       -2.02100029
$end

$rem
         jobtype = opt
        exchange = b3lyp
           basis = 6-31++g**
  max_scf_cycles = 150
      mem_static = 775
       mem_total = 7750
      sym_ignore = true
        symmetry = false
          thresh = 12
$end

$opt
CONSTRAINT
tors 6 8 9 10 -50.0
ENDCONSTRAINT
$end

--------------------------------------------------------------

   14   -1104.8388335066      8.29E-09 Convergence criterion met
 Total energy in the final basis set = -1104.8388335066
   11   -1104.8391843057      5.72E-09 Convergence criterion met
 Total energy in the final basis set = -1104.8391843057
   11   -1104.8392640023      3.32E-09 Convergence criterion met
 Total energy in the final basis set = -1104.8392640023
   10   -1104.8392760077      4.28E-09 Convergence criterion met
 Total energy in the final basis set = -1104.8392760077
    9   -1104.8392785288      3.60E-09 Convergence criterion met
 Total energy in the final basis set = -1104.8392785288

             Standard Nuclear Orientation (Angstroms)
    I     Atom           X                Y                Z
 ----------------------------------------------------------------
    1      S       0.0143960804     0.0610874904     0.0211846581
    2      C       1.7478749726     0.0354967308     0.0009451070
    3      H       2.2997179064     0.0376298782     0.9310161500
    4      C       2.2381637910     0.0130401219    -1.2786202886
    5      H       3.2968396334    -0.0100123293    -1.5109172016
    6      C       1.2078075088     0.0004608247    -2.2646853240
    7      H       1.3872589711    -0.0517282640    -3.3324438236
    8      C      -0.0624651215     0.0309387804    -1.7312017928
    9      C      -1.3328635018     0.0274745015    -2.4477984135
   10      C      -1.7130150911     0.8390139528    -3.4946982044
   11      H      -1.0670611004     1.6131473619    -3.8928644561
   12      C      -3.0331708007     0.5762859688    -3.9663257308
   13      H      -3.5024029083     1.1172493544    -4.7803418634
   14      C      -3.6579098642    -0.4219164626    -3.2654060695
   15      H      -4.6567326622    -0.8136130851    -3.4019149515
   16      S      -2.6339438237    -1.0717931550    -2.0266050652
 ----------------------------------------------------------------

    9   -1104.8392792512      3.02E-09 Convergence criterion met
 Total energy in the final basis set = -1104.8392792512
 Final energy is   -1104.83927925123
 **  OPTIMIZATION CONVERGED  **

                    Orbital Energies (a.u.)
 --------------------------------------------------------------

 Alpha MOs
 -- Occupied --
-88.920 -88.920 -10.237 -10.237 -10.225 -10.225 -10.204 -10.204
-10.203 -10.203  -7.979  -7.979  -5.943  -5.943  -5.939  -5.939
 -5.936  -5.936  -0.899  -0.878  -0.770  -0.746  -0.738  -0.705
 -0.602  -0.574  -0.558  -0.534  -0.524  -0.477  -0.419  -0.416
 -0.411  -0.404  -0.397  -0.376  -0.374  -0.355  -0.348  -0.268
 -0.262  -0.260  -0.222

          Ground-State Mulliken Net Atomic Charges

     Atom                 Charge (a.u.)
  ----------------------------------------
      1 S                     0.004377
      2 C                    -0.055200
      3 H                     0.187734
      4 C                    -0.416313
      5 H                     0.116394
      6 C                     0.285028
      7 H                     0.144580
      8 C                    -0.272422
      9 C                    -0.263334
     10 C                     0.285592
     11 H                     0.144584
     12 C                    -0.414353
     13 H                     0.116438
     14 C                    -0.055702
     15 H                     0.187778
     16 S                     0.004818
  ----------------------------------------
  Sum of atomic charges =     0.000000

                    Cartesian Multipole Moments
 -----------------------------------------------------------------
    Charge (ESU x 10^10)
                 0.0000
    Dipole Moment (Debye)
         X       0.4163      Y       0.3678      Z      -0.7415
       Tot       0.9265
    Quadrupole Moments (Debye-Ang)
        XX     -63.8905     XY       0.7513     YY     -75.8492
        XZ       3.9748     YZ      -3.0612     ZZ     -65.7257

 Total job time:  49.69s(wall), 49.70s(cpu)
        *  Thank you very much for using Q-Chem.  Have a nice day.  *
