 Q-Chem 4.4, Q-Chem, Inc., Pleasanton, CA (2016)
 Q-Chem 4.4.2 for Intel X86 EM64T Linux

User input:
--------------------------------------------------------------
$molecule
 0  1
 S           0.00238887        0.06077275        0.00183269
 C           1.73707619        0.03315849        0.00323229
 H           2.27612737        0.05289032        0.94042557
 C           2.24169204       -0.01546201       -1.26965798
 H           3.30285780       -0.04005365       -1.48972496
 C           1.22479222       -0.01612968       -2.26811464
 H           1.42674790       -0.02650987       -3.33334501
 C          -0.05393771        0.02880388       -1.75170966
 C          -1.32450815        0.04889988       -2.45636342
 C          -1.77188737       -0.78139534       -3.46358739
 H          -1.18234618       -1.60517259       -3.85043400
 C          -3.08711032       -0.46989222       -3.91529429
 H          -3.60356818       -1.01998728       -4.69360101
 C          -3.63912167        0.59408870       -3.25169632
 H          -4.61743870        1.03544518       -3.38429159
 S          -2.54850820        1.24633227       -2.07073236
$end

$rem
         jobtype = opt
        exchange = b3lyp
           basis = 6-31++g**
  max_scf_cycles = 150
      mem_static = 775
       mem_total = 7750
      sym_ignore = true
        symmetry = false
          thresh = 12
$end

$opt
CONSTRAINT
tors 6 8 9 10 50.0
ENDCONSTRAINT
$end

--------------------------------------------------------------

   14   -1104.8390724387      7.32E-09 Convergence criterion met
 Total energy in the final basis set = -1104.8390724387
   11   -1104.8392399030      4.88E-09 Convergence criterion met
 Total energy in the final basis set = -1104.8392399030
   11   -1104.8392679383      3.40E-09 Convergence criterion met
 Total energy in the final basis set = -1104.8392679383
    9   -1104.8392707563      7.61E-09 Convergence criterion met
 Total energy in the final basis set = -1104.8392707563
    9   -1104.8392717917      5.70E-09 Convergence criterion met
 Total energy in the final basis set = -1104.8392717917

             Standard Nuclear Orientation (Angstroms)
    I     Atom           X                Y                Z
 ----------------------------------------------------------------
    1      S       0.0191558145     0.0808891244     0.0260638570
    2      C       1.7519200336     0.0263647055    -0.0006680283
    3      H       2.3078601358     0.0402791412     0.9268562012
    4      C       2.2361019448    -0.0309224752    -1.2814815836
    5      H       3.2934785587    -0.0678422064    -1.5178835900
    6      C       1.2022815865    -0.0153681548    -2.2638941192
    7      H       1.3783612983    -0.0196850728    -3.3334466204
    8      C      -0.0652447996     0.0362382862    -1.7255898830
    9      C      -1.3378989241     0.0671497273    -2.4375479301
   10      C      -1.7610583893    -0.7705781379    -3.4466627676
   11      H      -1.1543586711    -1.5909924588    -3.8125554944
   12      C      -3.0697325958    -0.4665268657    -3.9254940558
   13      H      -3.5676640390    -1.0192458638    -4.7141557059
   14      C      -3.6433328508     0.5896955023    -3.2671900206
   15      H      -4.6232309951     1.0219575107    -3.4177729618
   16      S      -2.5833821976     1.2443760678    -2.0616393776
 ----------------------------------------------------------------

    9   -1104.8392721326      4.24E-09 Convergence criterion met
 Total energy in the final basis set = -1104.8392721326
 Final energy is   -1104.83927213261
 **  OPTIMIZATION CONVERGED  **

                    Orbital Energies (a.u.)
 --------------------------------------------------------------

 Alpha MOs
 -- Occupied --
-88.920 -88.920 -10.237 -10.237 -10.225 -10.225 -10.204 -10.204
-10.203 -10.203  -7.979  -7.979  -5.943  -5.943  -5.939  -5.939
 -5.936  -5.936  -0.899  -0.878  -0.770  -0.746  -0.738  -0.705
 -0.602  -0.574  -0.558  -0.534  -0.524  -0.477  -0.419  -0.416
 -0.411  -0.404  -0.397  -0.376  -0.374  -0.355  -0.348  -0.268
 -0.262  -0.260  -0.222

          Ground-State Mulliken Net Atomic Charges

     Atom                 Charge (a.u.)
  ----------------------------------------
      1 S                     0.004128
      2 C                    -0.054867
      3 H                     0.187749
      4 C                    -0.416067
      5 H                     0.116405
      6 C                     0.285591
      7 H                     0.144531
      8 C                    -0.270227
      9 C                    -0.266667
     10 C                     0.286548
     11 H                     0.144498
     12 C                    -0.414997
     13 H                     0.116427
     14 C                    -0.055440
     15 H                     0.187790
     16 S                     0.004598
  ----------------------------------------
  Sum of atomic charges =     0.000000

                    Cartesian Multipole Moments
 -----------------------------------------------------------------
    Charge (ESU x 10^10)
                -0.0000
    Dipole Moment (Debye)
         X       0.3957      Y      -0.4182      Z      -0.7269
       Tot       0.9273
    Quadrupole Moments (Debye-Ang)
        XX     -63.9440     XY      -1.0589     YY     -75.5988
        XZ       4.1532     YZ       3.2051     ZZ     -66.0333

 Total job time:  49.41s(wall), 49.16s(cpu)
        *  Thank you very much for using Q-Chem.  Have a nice day.  *
