 Q-Chem 4.4, Q-Chem, Inc., Pleasanton, CA (2016)
 Q-Chem 4.4.2 for Intel X86 EM64T Linux

User input:
--------------------------------------------------------------
$molecule
 0  1
 S           0.00238887        0.06077275        0.00183269
 C           1.73707619        0.03315849        0.00323229
 H           2.27612737        0.05289032        0.94042557
 C           2.24169204       -0.01546201       -1.26965798
 H           3.30285780       -0.04005365       -1.48972496
 C           1.22479222       -0.01612968       -2.26811464
 H           1.42674790       -0.02650987       -3.33334501
 C          -0.05393771        0.02880388       -1.75170966
 C          -1.32450815        0.04889988       -2.45636342
 C          -1.61927000        0.56834578       -3.70028056
 H          -0.87302722        1.03610928       -4.33284446
 C          -2.98269975        0.39898504       -4.07877888
 H          -3.39262504        0.73643102       -5.02386412
 C          -3.72262077       -0.24933774       -3.12519163
 H          -4.77050983       -0.51516394       -3.15250879
 S          -2.76440370       -0.64953580       -1.73551655
$end

$rem
         jobtype = opt
        exchange = b3lyp
           basis = 6-31++g**
  max_scf_cycles = 150
      mem_static = 775
       mem_total = 7750
      sym_ignore = true
        symmetry = false
          thresh = 12
$end

$opt
CONSTRAINT
tors 6 8 9 10 -30.0
ENDCONSTRAINT
$end

--------------------------------------------------------------

   14   -1104.8391763360      6.62E-09 Convergence criterion met
 Total energy in the final basis set = -1104.8391763360
   14   -1104.8396309813      6.79E-09 Convergence criterion met
 Total energy in the final basis set = -1104.8396309813
   11   -1104.8397300900      7.01E-09 Convergence criterion met
 Total energy in the final basis set = -1104.8397300900
   10   -1104.8397569113      6.20E-09 Convergence criterion met
 Total energy in the final basis set = -1104.8397569113
   14   -1104.8397178320      6.88E-09 Convergence criterion met
 Total energy in the final basis set = -1104.8397178320
   10   -1104.8397211579      2.26E-09 Convergence criterion met
 Total energy in the final basis set = -1104.8397211579

             Standard Nuclear Orientation (Angstroms)
    I     Atom           X                Y                Z
 ----------------------------------------------------------------
    1      S       0.0250615983     0.0972585297     0.0313988081
    2      C       1.7584530689     0.0537152290    -0.0052265458
    3      H       2.3184727812     0.0685474316     0.9196322072
    4      C       2.2342836886    -0.0001319592    -1.2893489465
    5      H       3.2901758954    -0.0367555013    -1.5323534551
    6      C       1.1950580154    -0.0236851653    -2.2642003894
    7      H       1.3678284519    -0.1025034204    -3.3313044768
    8      C      -0.0714123877     0.0206788323    -1.7184170671
    9      C      -1.3434854130     0.0391831834    -2.4240571701
   10      C      -1.6077755990     0.5667596043    -3.6714516499
   11      H      -0.8586980279     1.0898198147    -4.2546603171
   12      C      -2.9595507341     0.3918915592    -4.0872040665
   13      H      -3.3504009489     0.7477179647    -5.0337634171
   14      C      -3.7232315918    -0.2595742350    -3.1542137265
   15      H      -4.7739321370    -0.5109143166    -3.2016576597
   16      S      -2.7927664402    -0.6898038010    -1.7555822377
 ----------------------------------------------------------------

    9   -1104.8397219463      3.57E-09 Convergence criterion met
 Total energy in the final basis set = -1104.8397219463
 Final energy is   -1104.83972194626
 **  OPTIMIZATION CONVERGED  **

                    Orbital Energies (a.u.)
 --------------------------------------------------------------

 Alpha MOs
 -- Occupied --
-88.920 -88.920 -10.238 -10.238 -10.225 -10.225 -10.205 -10.205
-10.203 -10.203  -7.979  -7.979  -5.943  -5.943  -5.940  -5.940
 -5.936  -5.936  -0.900  -0.878  -0.771  -0.748  -0.738  -0.705
 -0.603  -0.578  -0.555  -0.533  -0.526  -0.477  -0.421  -0.417
 -0.409  -0.403  -0.400  -0.376  -0.374  -0.357  -0.346  -0.277
 -0.263  -0.260  -0.215

          Ground-State Mulliken Net Atomic Charges

     Atom                 Charge (a.u.)
  ----------------------------------------
      1 S                    -0.059146
      2 C                    -0.005438
      3 H                     0.193891
      4 C                    -0.345790
      5 H                     0.120339
      6 C                     0.299993
      7 H                     0.133297
      8 C                    -0.338927
      9 C                    -0.332355
     10 C                     0.298398
     11 H                     0.133034
     12 C                    -0.345015
     13 H                     0.120367
     14 C                    -0.005979
     15 H                     0.193929
     16 S                    -0.060598
  ----------------------------------------
  Sum of atomic charges =     0.000000

                    Cartesian Multipole Moments
 -----------------------------------------------------------------
    Charge (ESU x 10^10)
                -0.0000
    Dipole Moment (Debye)
         X       0.4753      Y       0.2278      Z      -0.8509
       Tot       1.0009
    Quadrupole Moments (Debye-Ang)
        XX     -63.5984     XY       0.6868     YY     -77.5726
        XZ       3.2872     YZ      -2.3203     ZZ     -63.9983

 Total job time:  63.33s(wall), 61.71s(cpu)
        *  Thank you very much for using Q-Chem.  Have a nice day.  *
