 Q-Chem 4.4, Q-Chem, Inc., Pleasanton, CA (2016)
 Q-Chem 4.4.2 for Intel X86 EM64T Linux

User input:
--------------------------------------------------------------
$molecule
 0  1
 S           0.00238887        0.06077275        0.00183269
 C           1.73707619        0.03315849        0.00323229
 H           2.27612737        0.05289032        0.94042557
 C           2.24169204       -0.01546201       -1.26965798
 H           3.30285780       -0.04005365       -1.48972496
 C           1.22479222       -0.01612968       -2.26811464
 H           1.42674790       -0.02650987       -3.33334501
 C          -0.05393771        0.02880388       -1.75170966
 C          -1.32450815        0.04889988       -2.45636342
 C          -2.51912638        0.62538391       -2.07611104
 H          -2.63608074        1.17689977       -1.14984434
 C          -3.56320830        0.45256729       -3.03052819
 H          -4.56608740        0.84441609       -2.90489913
 C          -3.16270237       -0.25251408       -4.13487843
 H          -3.74120818       -0.51980274       -5.00858837
 S          -1.50014430       -0.73382863       -4.01752319
$end

$rem
         jobtype = opt
        exchange = b3lyp
           basis = 6-31++g**
  max_scf_cycles = 150
      mem_static = 775
       mem_total = 7750
      sym_ignore = true
        symmetry = false
          thresh = 12
$end

$opt
CONSTRAINT
tors 6 8 9 10 -150.0
ENDCONSTRAINT
$end

--------------------------------------------------------------

   15   -1104.8407608543      3.05E-09 Convergence criterion met
 Total energy in the final basis set = -1104.8407608543
    9   -1104.8407652602      9.18E-09 Convergence criterion met
 Total energy in the final basis set = -1104.8407652602
    9   -1104.8407676316      9.91E-09 Convergence criterion met
 Total energy in the final basis set = -1104.8407676316

             Standard Nuclear Orientation (Angstroms)
    I     Atom           X                Y                Z
 ----------------------------------------------------------------
    1      S       0.0027145598     0.0644759172     0.0027159351
    2      C       1.7372998534     0.0414851908     0.0028189497
    3      H       2.2779101717     0.0705424070     0.9388938570
    4      C       2.2409702235    -0.0154141755    -1.2702448238
    5      H       3.3020358777    -0.0378874301    -1.4910278276
    6      C       1.2231276188    -0.0254011445    -2.2679922060
    7      H       1.4223168735    -0.0404327892    -3.3336371766
    8      C      -0.0545613777     0.0199732573    -1.7500831329
    9      C      -1.3266680562     0.0405489715    -2.4537232423
   10      C      -2.5201111666     0.6174362369    -2.0718421325
   11      H      -2.6355361791     1.1649879265    -1.1430077273
   12      C      -3.5625208567     0.4524336795    -3.0297206908
   13      H      -4.5647150167     0.8461328153    -2.9043984812
   14      C      -3.1605904964    -0.2452167359    -4.1385292714
   15      H      -3.7378330628    -0.5040288605    -5.0156013376
   16      S      -1.4991601063    -0.7301435463    -4.0204185019
 ----------------------------------------------------------------

    9   -1104.8407682025      4.40E-09 Convergence criterion met
 Total energy in the final basis set = -1104.8407682025
 Final energy is   -1104.84076820252
 **  OPTIMIZATION CONVERGED  **

                    Orbital Energies (a.u.)
 --------------------------------------------------------------

 Alpha MOs
 -- Occupied --
-88.920 -88.920 -10.239 -10.238 -10.225 -10.225 -10.205 -10.205
-10.203 -10.203  -7.979  -7.979  -5.944  -5.944  -5.940  -5.940
 -5.936  -5.936  -0.900  -0.878  -0.771  -0.749  -0.738  -0.706
 -0.604  -0.579  -0.553  -0.534  -0.526  -0.478  -0.420  -0.418
 -0.408  -0.405  -0.400  -0.378  -0.374  -0.357  -0.345  -0.278
 -0.263  -0.260  -0.215

          Ground-State Mulliken Net Atomic Charges

     Atom                 Charge (a.u.)
  ----------------------------------------
      1 S                    -0.058917
      2 C                    -0.038448
      3 H                     0.187917
      4 C                    -0.392152
      5 H                     0.115014
      6 C                     0.307382
      7 H                     0.128449
      8 C                    -0.249820
      9 C                    -0.248402
     10 C                     0.306834
     11 H                     0.128701
     12 C                    -0.392437
     13 H                     0.114915
     14 C                    -0.038688
     15 H                     0.187905
     16 S                    -0.058253
  ----------------------------------------
  Sum of atomic charges =     0.000000

                    Cartesian Multipole Moments
 -----------------------------------------------------------------
    Charge (ESU x 10^10)
                 0.0000
    Dipole Moment (Debye)
         X       0.0502      Y       0.3207      Z      -0.0822
       Tot       0.3349
    Quadrupole Moments (Debye-Ang)
        XX     -62.8704     XY      -1.7203     YY     -77.4090
        XZ       3.6266     YZ       1.4076     ZZ     -67.4748

 Total job time:  33.34s(wall), 32.10s(cpu)
        *  Thank you very much for using Q-Chem.  Have a nice day.  *
