 Q-Chem 4.4, Q-Chem, Inc., Pleasanton, CA (2016)
 Q-Chem 4.4.1 for Intel X86 EM64T Linux

User input:
--------------------------------------------------------------
$molecule
 0  1
 S           1.80900300       -1.15938900        0.25896800
 C           3.16466000       -0.14246800        0.05606700
 C           2.78757500        1.14089100       -0.25226100
 C           1.39402000        1.28822000       -0.33563400
 C           0.70898100        0.11689900       -0.08798100
 H           0.89277600        2.20524100       -0.58940400
 C          -0.70898100       -0.11689900       -0.08798100
 S          -1.34060890       -1.68137537        0.24786560
 C          -1.73379724        0.77249573       -0.33563400
 C          -2.95223669       -1.14585860        0.07762841
 C          -3.00664338        0.18773727       -0.24304517
 H          -3.92923975        0.71689043       -0.39462147
 H           4.15569300       -0.53353100        0.17259300
 H           3.49202900        1.93475000       -0.41867900
 H          -3.76622985       -1.82852488        0.21918000
 H          -1.55493526        1.81069012       -0.55181233
$end

$rem
         jobtype = opt
        exchange = hf
           basis = cc-pvtz
  max_scf_cycles = 100
      mem_static = 6200
       mem_total = 62000
          method = mp2
$end

$opt
CONSTRAINT
tors 4 5 7 9 0.0
ENDCONSTRAINT
$end

--------------------------------------------------------------

   15   -1101.5959965431      6.67E-09 Convergence criterion met
 Total energy in the final basis set = -1101.5959965431
        MP2         total energy =     -1103.4123831335 au
   11   -1101.5969233741      4.29E-09 Convergence criterion met
 Total energy in the final basis set = -1101.5969233741
        MP2         total energy =     -1103.4128673289 au
   10   -1101.5968375433      7.08E-09 Convergence criterion met
 Total energy in the final basis set = -1101.5968375433
        MP2         total energy =     -1103.4128888890 au
    9   -1101.5968416417      5.48E-09 Convergence criterion met
 Total energy in the final basis set = -1101.5968416417
        MP2         total energy =     -1103.4128923287 au
    8   -1101.5968294857      7.00E-09 Convergence criterion met
 Total energy in the final basis set = -1101.5968294857
        MP2         total energy =     -1103.4128934326 au

             Standard Nuclear Orientation (Angstroms)
    I     Atom           X                Y                Z
 ----------------------------------------------------------------
    1      S       1.6289646627    -0.0018149952     1.1475717203
    2      C       3.1161313909    -0.0057948580     0.3104403358
    3      C       2.9238942317    -0.0068331206    -1.0485864932
    4      C       1.5663162688    -0.0045416252    -1.4023829760
    5      C       0.7191990134    -0.0020853595    -0.3123255713
    6      H       1.2067654768    -0.0048217512    -2.4154507557
    7      C      -0.7191990134     0.0020853595    -0.3123255713
    8      S      -1.6289646627     0.0018149952     1.1475717203
    9      C      -1.5663162688     0.0045416252    -1.4023829760
   10      C      -3.1161313909     0.0057948580     0.3104403358
   11      C      -2.9238942317     0.0068331206    -1.0485864932
   12      H      -3.7332392587     0.0089157209    -1.7551033484
   13      H       4.0400186072    -0.0072761189     0.8533411848
   14      H       3.7332392587    -0.0089157209    -1.7551033484
   15      H      -4.0400186072     0.0072761189     0.8533411848
   16      H      -1.2067654768     0.0048217512    -2.4154507557
 ----------------------------------------------------------------

    8   -1101.5968296190      3.95E-09 Convergence criterion met
 Total energy in the final basis set = -1101.5968296190
        MP2         total energy =     -1103.4128938260 au
 Final energy is   -1103.41289382598
 **  OPTIMIZATION CONVERGED  **

             Orbital Energies (a.u.) and Symmetries
 --------------------------------------------------------------

 Alpha MOs, Restricted
 -- Occupied --
-91.985 -91.985 -11.276 -11.275 -11.261 -11.261 -11.239 -11.239
  1 A     1 B     2 A     2 B     3 B     3 A     4 B     4 A
-11.237 -11.237  -8.987  -8.987  -6.668  -6.668  -6.667  -6.667
  5 B     5 A     6 B     6 A     7 B     7 A     8 B     8 A
 -6.666  -6.666  -1.197  -1.167  -1.036  -1.001  -0.984  -0.948
  9 A     9 B    10 A    10 B    11 A    12 A    11 B    12 B
 -0.810  -0.780  -0.746  -0.717  -0.709  -0.645  -0.576  -0.572
 13 A    14 A    13 B    14 B    15 A    15 B    16 A    17 A
 -0.557  -0.556  -0.543  -0.512  -0.511  -0.490  -0.463  -0.379
 16 B    17 B    18 A    19 A    18 B    20 A    19 B    20 B
 -0.357  -0.345  -0.276
 21 B    21 A    22 A

 Beta MOs, Restricted
 -- Occupied --
-91.985 -91.985 -11.276 -11.275 -11.261 -11.261 -11.239 -11.239
  1 A     1 B     2 A     2 B     3 B     3 A     4 B     4 A
-11.237 -11.237  -8.987  -8.987  -6.668  -6.668  -6.667  -6.667
  5 B     5 A     6 B     6 A     7 B     7 A     8 B     8 A
 -6.666  -6.666  -1.197  -1.167  -1.036  -1.001  -0.984  -0.948
  9 A     9 B    10 A    10 B    11 A    12 A    11 B    12 B
 -0.810  -0.780  -0.746  -0.717  -0.709  -0.645  -0.576  -0.572
 13 A    14 A    13 B    14 B    15 A    15 B    16 A    17 A
 -0.557  -0.556  -0.543  -0.512  -0.511  -0.490  -0.463  -0.379
 16 B    17 B    18 A    19 A    18 B    20 A    19 B    20 B
 -0.357  -0.345  -0.276
 21 B    21 A    22 A

          Ground-State Mulliken Net Atomic Charges

     Atom                 Charge (a.u.)
  ----------------------------------------
      1 S                     0.100073
      2 C                    -0.235666
      3 C                    -0.208452
      4 C                    -0.177373
      5 C                    -0.003928
      6 H                     0.164618
      7 C                    -0.003928
      8 S                     0.100073
      9 C                    -0.177373
     10 C                    -0.235666
     11 C                    -0.208452
     12 H                     0.173872
     13 H                     0.186856
     14 H                     0.173872
     15 H                     0.186856
     16 H                     0.164618
  ----------------------------------------
  Sum of atomic charges =     0.000000

                    Cartesian Multipole Moments
 -----------------------------------------------------------------
    Charge (ESU x 10^10)
                -0.0000
    Dipole Moment (Debye)
         X       0.0000      Y       0.0000      Z      -0.7435
       Tot       0.7435
    Quadrupole Moments (Debye-Ang)
        XX     -60.9988     XY      -0.0325     YY     -78.1244
        XZ      -0.0000     YZ       0.0000     ZZ     -67.4028

 Total job time:  9066.15s(wall), 46815.75s(cpu)
        *  Thank you very much for using Q-Chem.  Have a nice day.  *
