 Q-Chem 4.4, Q-Chem, Inc., Pleasanton, CA (2016)
 Q-Chem 4.4.1 for Intel X86 EM64T Linux

User input:
--------------------------------------------------------------
$molecule
 0  1
 S           1.80900300       -1.15938900        0.25896800
 C           3.16466000       -0.14246800        0.05606700
 C           2.78757500        1.14089100       -0.25226100
 C           1.39402000        1.28822000       -0.33563400
 C           0.70898100        0.11689900       -0.08798100
 H           0.89277600        2.20524100       -0.58940400
 C          -0.70898100       -0.11689900       -0.08798100
 S          -1.41049687       -1.25751171       -1.16789359
 C          -1.68374492        0.46893333        0.69255670
 C          -2.98180173       -0.96654952       -0.56835621
 C          -2.97363448       -0.01245843        0.41851413
 H          -3.86290779        0.31459360        0.92486623
 H           4.15569300       -0.53353100        0.17259300
 H           3.49202900        1.93475000       -0.41867900
 H          -3.81987017       -1.50320160       -0.96622656
 H          -1.45438235        1.20084661        1.44639225
$end

$rem
         jobtype = opt
        exchange = hf
           basis = cc-pvtz
  max_scf_cycles = 100
      mem_static = 6200
       mem_total = 62000
          method = mp2
$end

$opt
CONSTRAINT
tors 4 5 7 9 -60.0
ENDCONSTRAINT
$end

--------------------------------------------------------------

   18   -1101.5968981229      6.17E-09 Convergence criterion met
 Total energy in the final basis set = -1101.5968981229
        MP2         total energy =     -1103.4119692629 au
   10   -1101.5975673753      5.95E-09 Convergence criterion met
 Total energy in the final basis set = -1101.5975673753
        MP2         total energy =     -1103.4122493565 au
   10   -1101.5976539429      8.32E-09 Convergence criterion met
 Total energy in the final basis set = -1101.5976539429
        MP2         total energy =     -1103.4122814550 au
   10   -1101.5976749425      8.17E-09 Convergence criterion met
 Total energy in the final basis set = -1101.5976749425
        MP2         total energy =     -1103.4122944666 au
   10   -1101.5976175318      5.09E-09 Convergence criterion met
 Total energy in the final basis set = -1101.5976175318
        MP2         total energy =     -1103.4122990589 au
   10   -1101.5975873886      3.92E-09 Convergence criterion met
 Total energy in the final basis set = -1101.5975873886
        MP2         total energy =     -1103.4123008867 au

             Standard Nuclear Orientation (Angstroms)
    I     Atom           X                Y                Z
 ----------------------------------------------------------------
    1      S       1.6500779751     0.6064438301     1.0029474291
    2      C       3.1181841904     0.1100416205     0.2921505654
    3      C       2.9058325208    -0.5280975474    -0.9053807100
    4      C       1.5432588699    -0.6205335470    -1.2322070335
    5      C       0.7210077751    -0.0362435009    -0.2929633861
    6      H       1.1541026806    -1.1021463352    -2.1110652129
    7      C      -0.7210077751     0.0362435009    -0.2929633861
    8      S      -1.6500779751    -0.6064438301     1.0029474291
    9      C      -1.5432588699     0.6205335470    -1.2322070335
   10      C      -3.1181841904    -0.1100416205     0.2921505654
   11      C      -2.9058325208     0.5280975474    -0.9053807100
   12      H      -3.7030093360     0.9203874856    -1.5094164807
   13      H       4.0515952041     0.3088403160     0.7800909816
   14      H       3.7030093360    -0.9203874856    -1.5094164807
   15      H      -4.0515952041    -0.3088403160     0.7800909816
   16      H      -1.1541026806     1.1021463352    -2.1110652129
 ----------------------------------------------------------------

    8   -1101.5975851652      6.42E-09 Convergence criterion met
 Total energy in the final basis set = -1101.5975851652
        MP2         total energy =     -1103.4123012761 au
 Final energy is   -1103.41230127615
 **  OPTIMIZATION CONVERGED  **

             Orbital Energies (a.u.) and Symmetries
 --------------------------------------------------------------

 Alpha MOs, Restricted
 -- Occupied --
-91.984 -91.984 -11.273 -11.272 -11.261 -11.261 -11.238 -11.238
  1 B     1 A     2 A     2 B     3 B     3 A     4 B     4 A
-11.236 -11.236  -8.986  -8.986  -6.667  -6.667  -6.666  -6.666
  5 B     5 A     6 B     6 A     7 B     7 A     8 A     8 B
 -6.665  -6.665  -1.195  -1.166  -1.034  -0.996  -0.987  -0.948
  9 B     9 A    10 A    10 B    11 A    12 A    11 B    12 B
 -0.807  -0.771  -0.755  -0.718  -0.704  -0.645  -0.571  -0.568
 13 A    14 A    13 B    14 B    15 A    15 B    16 A    17 A
 -0.565  -0.553  -0.538  -0.512  -0.512  -0.481  -0.472  -0.353
 16 B    17 B    18 A    19 A    18 B    20 A    19 B    21 A
 -0.351  -0.346  -0.297
 20 B    21 B    22 A

 Beta MOs, Restricted
 -- Occupied --
-91.984 -91.984 -11.273 -11.272 -11.261 -11.261 -11.238 -11.238
  1 B     1 A     2 A     2 B     3 B     3 A     4 B     4 A
-11.236 -11.236  -8.986  -8.986  -6.667  -6.667  -6.666  -6.666
  5 B     5 A     6 B     6 A     7 B     7 A     8 A     8 B
 -6.665  -6.665  -1.195  -1.166  -1.034  -0.996  -0.987  -0.948
  9 B     9 A    10 A    10 B    11 A    12 A    11 B    12 B
 -0.807  -0.771  -0.755  -0.718  -0.704  -0.645  -0.571  -0.568
 13 A    14 A    13 B    14 B    15 A    15 B    16 A    17 A
 -0.565  -0.553  -0.538  -0.512  -0.512  -0.481  -0.472  -0.353
 16 B    17 B    18 A    19 A    18 B    20 A    19 B    21 A
 -0.351  -0.346  -0.297
 20 B    21 B    22 A

          Ground-State Mulliken Net Atomic Charges

     Atom                 Charge (a.u.)
  ----------------------------------------
      1 S                     0.123254
      2 C                    -0.237694
      3 C                    -0.191822
      4 C                    -0.195422
      5 C                    -0.033223
      6 H                     0.176221
      7 C                    -0.033223
      8 S                     0.123254
      9 C                    -0.195422
     10 C                    -0.237694
     11 C                    -0.191822
     12 H                     0.174347
     13 H                     0.184338
     14 H                     0.174347
     15 H                     0.184338
     16 H                     0.176221
  ----------------------------------------
  Sum of atomic charges =     0.000000

                    Cartesian Multipole Moments
 -----------------------------------------------------------------
    Charge (ESU x 10^10)
                -0.0000
    Dipole Moment (Debye)
         X       0.0000      Y      -0.0000      Z      -0.6014
       Tot       0.6014
    Quadrupole Moments (Debye-Ang)
        XX     -61.2812     XY      -0.9094     YY     -75.5168
        XZ       0.0000     YZ      -0.0000     ZZ     -69.9260

 Total job time:  10737.87s(wall), 54511.36s(cpu)
        *  Thank you very much for using Q-Chem.  Have a nice day.  *
