 Q-Chem 4.4, Q-Chem, Inc., Pleasanton, CA (2016)
 Q-Chem 4.4.1 for Intel X86 EM64T Linux

User input:
--------------------------------------------------------------
$molecule
 0  1
 S           1.80900300       -1.15938900        0.25896800
 C           3.16466000       -0.14246800        0.05606700
 C           2.78757500        1.14089100       -0.25226100
 C           1.39402000        1.28822000       -0.33563400
 C           0.70898100        0.11689900       -0.08798100
 H           0.89277600        2.20524100       -0.58940400
 C          -0.70898100       -0.11689900       -0.08798100
 S          -1.44350411       -1.05732601       -1.32709597
 C          -1.65987398        0.32415840        0.80860934
 C          -2.99653055       -0.87722067       -0.64242525
 C          -2.95816059       -0.10630606        0.49269059
 H          -3.83197421        0.12698446        1.07250762
 H           4.15569300       -0.53353100        0.17259300
 H           3.49202900        1.93475000       -0.41867900
 H          -3.84681064       -1.33981030       -1.10252263
 H          -1.40752274        0.91664763        1.66991511
$end

$rem
         jobtype = opt
        exchange = hf
           basis = cc-pvtz
  max_scf_cycles = 100
      mem_static = 6200
       mem_total = 62000
          method = mp2
$end

$opt
CONSTRAINT
tors 4 5 7 9 -70.0
ENDCONSTRAINT
$end

--------------------------------------------------------------

   20   -1101.5962792102      5.55E-09 Convergence criterion met
 Total energy in the final basis set = -1101.5962792102
        MP2         total energy =     -1103.4112896589 au
   10   -1101.5969795667      8.18E-09 Convergence criterion met
 Total energy in the final basis set = -1101.5969795667
        MP2         total energy =     -1103.4115121743 au
   10   -1101.5970432321      7.28E-09 Convergence criterion met
 Total energy in the final basis set = -1101.5970432321
        MP2         total energy =     -1103.4115399649 au
   10   -1101.5970799585      8.24E-09 Convergence criterion met
 Total energy in the final basis set = -1101.5970799585
        MP2         total energy =     -1103.4115541875 au
   10   -1101.5970350532      5.28E-09 Convergence criterion met
 Total energy in the final basis set = -1101.5970350532
        MP2         total energy =     -1103.4115594086 au
   10   -1101.5970051049      3.67E-09 Convergence criterion met
 Total energy in the final basis set = -1101.5970051049
        MP2         total energy =     -1103.4115617758 au

             Standard Nuclear Orientation (Angstroms)
    I     Atom           X                Y                Z
 ----------------------------------------------------------------
    1      S       1.6632733893     0.6959365118     0.9506385441
    2      C       3.1227107721     0.1240933778     0.2811395440
    3      C       2.8985164481    -0.6151788586    -0.8545925211
    4      C       1.5335828370    -0.7193847781    -1.1681932591
    5      C       0.7216947063    -0.0458117086    -0.2816181042
    6      H       1.1358808468    -1.2674200356    -2.0031767117
    7      C      -0.7216947063     0.0458117086    -0.2816181042
    8      S      -1.6632733893    -0.6959365118     0.9506385441
    9      C      -1.5335828370     0.7193847781    -1.1681932591
   10      C      -3.1227107721    -0.1240933778     0.2811395440
   11      C      -2.8985164481     0.6151788586    -0.8545925211
   12      H      -3.6889020496     1.0670893278    -1.4249024038
   13      H       4.0606434498     0.3554844028     0.7455583521
   14      H       3.6889020496    -1.0670893278    -1.4249024038
   15      H      -4.0606434498    -0.3554844028     0.7455583521
   16      H      -1.1358808468     1.2674200356    -2.0031767117
 ----------------------------------------------------------------

    8   -1101.5970023780      8.38E-09 Convergence criterion met
 Total energy in the final basis set = -1101.5970023780
        MP2         total energy =     -1103.4115623212 au
 Final energy is   -1103.41156232119
 **  OPTIMIZATION CONVERGED  **

             Orbital Energies (a.u.) and Symmetries
 --------------------------------------------------------------

 Alpha MOs, Restricted
 -- Occupied --
-91.984 -91.984 -11.272 -11.271 -11.261 -11.261 -11.238 -11.238
  1 B     1 A     2 A     2 B     3 B     3 A     4 B     4 A
-11.236 -11.236  -8.985  -8.985  -6.666  -6.666  -6.666  -6.666
  5 A     5 B     6 B     6 A     7 A     7 B     8 A     8 B
 -6.665  -6.665  -1.195  -1.166  -1.033  -0.994  -0.988  -0.948
  9 B     9 A    10 A    10 B    11 A    12 A    11 B    12 B
 -0.806  -0.768  -0.758  -0.718  -0.704  -0.645  -0.571  -0.567
 13 A    14 A    13 B    14 B    15 A    15 B    16 A    17 A
 -0.566  -0.554  -0.537  -0.512  -0.512  -0.479  -0.473  -0.354
 16 B    17 B    18 A    18 B    19 A    20 A    19 B    21 A
 -0.345  -0.342  -0.304
 20 B    21 B    22 A

 Beta MOs, Restricted
 -- Occupied --
-91.984 -91.984 -11.272 -11.271 -11.261 -11.261 -11.238 -11.238
  1 B     1 A     2 A     2 B     3 B     3 A     4 B     4 A
-11.236 -11.236  -8.985  -8.985  -6.666  -6.666  -6.666  -6.666
  5 A     5 B     6 B     6 A     7 A     7 B     8 A     8 B
 -6.665  -6.665  -1.195  -1.166  -1.033  -0.994  -0.988  -0.948
  9 B     9 A    10 A    10 B    11 A    12 A    11 B    12 B
 -0.806  -0.768  -0.758  -0.718  -0.704  -0.645  -0.571  -0.567
 13 A    14 A    13 B    14 B    15 A    15 B    16 A    17 A
 -0.566  -0.554  -0.537  -0.512  -0.512  -0.479  -0.473  -0.354
 16 B    17 B    18 A    18 B    19 A    20 A    19 B    21 A
 -0.345  -0.342  -0.304
 20 B    21 B    22 A

          Ground-State Mulliken Net Atomic Charges

     Atom                 Charge (a.u.)
  ----------------------------------------
      1 S                     0.127247
      2 C                    -0.238250
      3 C                    -0.191010
      4 C                    -0.193283
      5 C                    -0.040008
      6 H                     0.176491
      7 C                    -0.040008
      8 S                     0.127247
      9 C                    -0.193283
     10 C                    -0.238250
     11 C                    -0.191010
     12 H                     0.174542
     13 H                     0.184272
     14 H                     0.174542
     15 H                     0.184272
     16 H                     0.176491
  ----------------------------------------
  Sum of atomic charges =    -0.000000

                    Cartesian Multipole Moments
 -----------------------------------------------------------------
    Charge (ESU x 10^10)
                -0.0000
    Dipole Moment (Debye)
         X       0.0000      Y      -0.0000      Z      -0.5679
       Tot       0.5679
    Quadrupole Moments (Debye-Ang)
        XX     -61.3368     XY      -0.9806     YY     -74.6982
        XZ      -0.0000     YZ      -0.0000     ZZ     -70.7182

 Total job time:  10495.94s(wall), 53556.24s(cpu)
        *  Thank you very much for using Q-Chem.  Have a nice day.  *
