 Q-Chem 4.4, Q-Chem, Inc., Pleasanton, CA (2016)
 Q-Chem 4.4.1 for Intel X86 EM64T Linux

User input:
--------------------------------------------------------------
$molecule
 0  1
 S           1.80900300       -1.15938900        0.25896800
 C           3.16466000       -0.14246800        0.05606700
 C           2.78757500        1.14089100       -0.25226100
 C           1.39402000        1.28822000       -0.33563400
 C           0.70898100        0.11689900       -0.08798100
 H           0.89277600        2.20524100       -0.58940400
 C          -0.70898100       -0.11689900       -0.08798100
 S          -1.70653614        0.53793754        1.15113397
 C          -1.46794326       -0.83988267       -0.98457134
 C          -3.11953426       -0.13121518        0.46646325
 C          -2.83570222       -0.84900413       -0.66865259
 H          -3.58836635       -1.35047338       -1.24846962
 H           4.15569300       -0.53353100        0.17259300
 H           3.49202900        1.93475000       -0.41867900
 H          -4.07331480        0.03391530        0.92656063
 H          -1.03873816       -1.31999477       -1.84587711
$end

$rem
         jobtype = opt
        exchange = hf
           basis = cc-pvtz
  max_scf_cycles = 100
      mem_static = 6200
       mem_total = 62000
          method = mp2
$end

$opt
CONSTRAINT
tors 4 5 7 9 110.0
ENDCONSTRAINT
$end

--------------------------------------------------------------

   16   -1101.5967058646      7.24E-09 Convergence criterion met
 Total energy in the final basis set = -1101.5967058646
        MP2         total energy =     -1103.4115944613 au
   10   -1101.5972587472      7.66E-09 Convergence criterion met
 Total energy in the final basis set = -1101.5972587472
        MP2         total energy =     -1103.4117574611 au
   11   -1101.5973455344      4.71E-09 Convergence criterion met
 Total energy in the final basis set = -1101.5973455344
        MP2         total energy =     -1103.4118137267 au
   11   -1101.5973607150      5.38E-09 Convergence criterion met
 Total energy in the final basis set = -1101.5973607150
        MP2         total energy =     -1103.4118542561 au
   11   -1101.5972715554      3.85E-09 Convergence criterion met
 Total energy in the final basis set = -1101.5972715554
        MP2         total energy =     -1103.4118682517 au
   10   -1101.5972356910      3.09E-09 Convergence criterion met
 Total energy in the final basis set = -1101.5972356910
        MP2         total energy =     -1103.4118716572 au

             Standard Nuclear Orientation (Angstroms)
    I     Atom           X                Y                Z
 ----------------------------------------------------------------
    1      S       1.7568212752    -1.0319647484     0.6219478777
    2      C       3.1552760117    -0.1904233455     0.1306561358
    3      C       2.8366930061     0.9267741119    -0.6024965090
    4      C       1.4513974071     1.0860451317    -0.7675063828
    5      C       0.7163256794     0.0970784246    -0.1504194238
    6      H       0.9876399002     1.8833436305    -1.3198134204
    7      C      -0.7163256794    -0.0970784246    -0.1504194238
    8      S      -1.7568212752     1.0319647484     0.6219478777
    9      C      -1.4513974071    -1.0860451317    -0.7675063828
   10      C      -3.1552760117     0.1904233455     0.1306561358
   11      C      -2.8366930061    -0.9267741119    -0.6024965090
   12      H      -3.5765305493    -1.5919958736    -1.0078750712
   13      H       4.1287216463    -0.5498280452     0.3993362185
   14      H       3.5765305493     1.5919958736    -1.0078750712
   15      H      -4.1287216463     0.5498280452     0.3993362185
   16      H      -0.9876399002    -1.8833436305    -1.3198134204
 ----------------------------------------------------------------

    8   -1101.5972331561      6.58E-09 Convergence criterion met
 Total energy in the final basis set = -1101.5972331561
        MP2         total energy =     -1103.4118722748 au
 Final energy is   -1103.41187227481
 **  OPTIMIZATION CONVERGED  **

             Orbital Energies (a.u.) and Symmetries
 --------------------------------------------------------------

 Alpha MOs, Restricted
 -- Occupied --
-91.984 -91.984 -11.272 -11.272 -11.261 -11.261 -11.238 -11.238
  1 B     1 A     2 A     2 B     3 B     3 A     4 A     4 B
-11.236 -11.236  -8.986  -8.986  -6.667  -6.667  -6.666  -6.666
  5 B     5 A     6 B     6 A     7 B     7 A     8 A     8 B
 -6.665  -6.665  -1.195  -1.166  -1.033  -0.994  -0.988  -0.948
  9 B     9 A    10 A    10 B    11 A    11 B    12 A    12 B
 -0.806  -0.770  -0.755  -0.718  -0.704  -0.645  -0.571  -0.569
 13 A    13 B    14 A    14 B    15 A    15 B    16 A    16 B
 -0.562  -0.555  -0.540  -0.513  -0.511  -0.478  -0.473  -0.354
 17 A    17 B    18 A    18 B    19 A    19 B    20 A    21 A
 -0.345  -0.343  -0.303
 20 B    22 A    21 B

 Beta MOs, Restricted
 -- Occupied --
-91.984 -91.984 -11.272 -11.272 -11.261 -11.261 -11.238 -11.238
  1 B     1 A     2 A     2 B     3 B     3 A     4 A     4 B
-11.236 -11.236  -8.986  -8.986  -6.667  -6.667  -6.666  -6.666
  5 B     5 A     6 B     6 A     7 B     7 A     8 A     8 B
 -6.665  -6.665  -1.195  -1.166  -1.033  -0.994  -0.988  -0.948
  9 B     9 A    10 A    10 B    11 A    11 B    12 A    12 B
 -0.806  -0.770  -0.755  -0.718  -0.704  -0.645  -0.571  -0.569
 13 A    13 B    14 A    14 B    15 A    15 B    16 A    16 B
 -0.562  -0.555  -0.540  -0.513  -0.511  -0.478  -0.473  -0.354
 17 A    17 B    18 A    18 B    19 A    19 B    20 A    21 A
 -0.345  -0.343  -0.303
 20 B    22 A    21 B

          Ground-State Mulliken Net Atomic Charges

     Atom                 Charge (a.u.)
  ----------------------------------------
      1 S                     0.128119
      2 C                    -0.239071
      3 C                    -0.192257
      4 C                    -0.198804
      5 C                    -0.033825
      6 H                     0.177242
      7 C                    -0.033825
      8 S                     0.128119
      9 C                    -0.198804
     10 C                    -0.239071
     11 C                    -0.192257
     12 H                     0.174341
     13 H                     0.184254
     14 H                     0.174341
     15 H                     0.184254
     16 H                     0.177242
  ----------------------------------------
  Sum of atomic charges =     0.000000

                    Cartesian Multipole Moments
 -----------------------------------------------------------------
    Charge (ESU x 10^10)
                -0.0000
    Dipole Moment (Debye)
         X       0.0000      Y      -0.0000      Z      -0.4839
       Tot       0.4839
    Quadrupole Moments (Debye-Ang)
        XX     -61.3316     XY       0.6877     YY     -70.8570
        XZ       0.0000     YZ      -0.0000     ZZ     -74.7797

 Total job time:  10583.27s(wall), 54444.39s(cpu)
        *  Thank you very much for using Q-Chem.  Have a nice day.  *
