 Q-Chem 4.4, Q-Chem, Inc., Pleasanton, CA (2016)
 Q-Chem 4.4.1 for Intel X86 EM64T Linux

User input:
--------------------------------------------------------------
$molecule
 0  1
 S           1.80900300       -1.15938900        0.25896800
 C           3.16466000       -0.14246800        0.05606700
 C           2.78757500        1.14089100       -0.25226100
 C           1.39402000        1.28822000       -0.33563400
 C           0.70898100        0.11689900       -0.08798100
 H           0.89277600        2.20524100       -0.58940400
 C          -0.70898100       -0.11689900       -0.08798100
 S          -1.52038241       -0.59106662       -1.52885777
 C          -1.60419842       -0.01350842        0.95628883
 C          -3.03108999       -0.66762106       -0.73828515
 C          -2.92215826       -0.32465672        0.58639554
 H          -3.76005655       -0.30918911        1.25859320
 H           4.15569300       -0.53353100        0.17259300
 H           3.49202900        1.93475000       -0.41867900
 H          -3.91009177       -0.95601645       -1.27943111
 H          -1.29858955        0.25597851        1.95155376
$end

$rem
         jobtype = opt
        exchange = hf
           basis = cc-pvtz
  max_scf_cycles = 100
      mem_static = 6200
       mem_total = 62000
          method = mp2
$end

$opt
CONSTRAINT
tors 4 5 7 9 -90.0
ENDCONSTRAINT
$end

--------------------------------------------------------------

   16   -1101.5956583957      6.29E-09 Convergence criterion met
 Total energy in the final basis set = -1101.5956583957
        MP2         total energy =     -1103.4106339533 au
   11   -1101.5963828364      7.57E-09 Convergence criterion met
 Total energy in the final basis set = -1101.5963828364
        MP2         total energy =     -1103.4108266108 au
   10   -1101.5963944168      4.62E-09 Convergence criterion met
 Total energy in the final basis set = -1101.5963944168
        MP2         total energy =     -1103.4108431341 au
    9   -1101.5964159488      7.35E-09 Convergence criterion met
 Total energy in the final basis set = -1101.5964159488
        MP2         total energy =     -1103.4108468482 au

             Standard Nuclear Orientation (Angstroms)
    I     Atom           X                Y                Z
 ----------------------------------------------------------------
    1      S      -1.7099757454    -0.8801093514     0.8082121244
    2      C      -3.1400246416    -0.1604518656     0.2251677984
    3      C      -2.8709900914     0.7859528515    -0.7335558927
    4      C      -1.4960033788     0.9192342740    -0.9868747050
    5      C      -0.7207758808     0.0735448515    -0.2242458825
    6      H      -1.0668526075     1.6028783269    -1.6969099830
    7      C       0.7207758808    -0.0735448515    -0.2242458825
    8      S       1.7099757454     0.8801093514     0.8082121244
    9      C       1.4960033788    -0.9192342740    -0.9868747050
   10      C       3.1400246416     0.1604518656     0.2251677984
   11      C       2.8709900914    -0.7859528515    -0.7335558927
   12      H       3.6374227663    -1.3537134911    -1.2278310786
   13      H      -4.0954773292    -0.4621499594     0.6061252952
   14      H      -3.6374227663     1.3537134911    -1.2278310786
   15      H       4.0954773292     0.4621499594     0.6061252952
   16      H       1.0668526075    -1.6028783269    -1.6969099830
 ----------------------------------------------------------------

    8   -1101.5963964855      7.44E-09 Convergence criterion met
 Total energy in the final basis set = -1101.5963964855
        MP2         total energy =     -1103.4108475318 au
 Final energy is   -1103.41084753178
 **  OPTIMIZATION CONVERGED  **

             Orbital Energies (a.u.) and Symmetries
 --------------------------------------------------------------

 Alpha MOs, Restricted
 -- Occupied --
-91.984 -91.984 -11.271 -11.270 -11.261 -11.261 -11.238 -11.238
  1 B     1 A     2 A     2 B     3 B     3 A     4 A     4 B
-11.236 -11.236  -8.985  -8.985  -6.666  -6.666  -6.666  -6.666
  5 B     5 A     6 B     6 A     7 A     7 B     8 A     8 B
 -6.665  -6.665  -1.194  -1.166  -1.032  -0.991  -0.991  -0.948
  9 B     9 A    10 A    10 B    11 A    11 B    12 A    12 B
 -0.805  -0.764  -0.761  -0.718  -0.703  -0.645  -0.570  -0.568
 13 A    13 B    14 A    14 B    15 A    15 B    16 A    16 B
 -0.565  -0.555  -0.537  -0.513  -0.511  -0.476  -0.475  -0.354
 17 A    17 B    18 A    18 B    19 A    19 B    20 A    21 A
 -0.343  -0.323  -0.322
 20 B    22 A    21 B

 Beta MOs, Restricted
 -- Occupied --
-91.984 -91.984 -11.271 -11.270 -11.261 -11.261 -11.238 -11.238
  1 B     1 A     2 A     2 B     3 B     3 A     4 A     4 B
-11.236 -11.236  -8.985  -8.985  -6.666  -6.666  -6.666  -6.666
  5 B     5 A     6 B     6 A     7 A     7 B     8 A     8 B
 -6.665  -6.665  -1.194  -1.166  -1.032  -0.991  -0.991  -0.948
  9 B     9 A    10 A    10 B    11 A    11 B    12 A    12 B
 -0.805  -0.764  -0.761  -0.718  -0.703  -0.645  -0.570  -0.568
 13 A    13 B    14 A    14 B    15 A    15 B    16 A    16 B
 -0.565  -0.555  -0.537  -0.513  -0.511  -0.476  -0.475  -0.354
 17 A    17 B    18 A    18 B    19 A    19 B    20 A    21 A
 -0.343  -0.323  -0.322
 20 B    22 A    21 B

          Ground-State Mulliken Net Atomic Charges

     Atom                 Charge (a.u.)
  ----------------------------------------
      1 S                     0.131447
      2 C                    -0.239762
      3 C                    -0.191233
      4 C                    -0.192070
      5 C                    -0.043750
      6 H                     0.176367
      7 C                    -0.043750
      8 S                     0.131447
      9 C                    -0.192070
     10 C                    -0.239762
     11 C                    -0.191233
     12 H                     0.174736
     13 H                     0.184265
     14 H                     0.174736
     15 H                     0.184265
     16 H                     0.176367
  ----------------------------------------
  Sum of atomic charges =     0.000000

                    Cartesian Multipole Moments
 -----------------------------------------------------------------
    Charge (ESU x 10^10)
                 0.0000
    Dipole Moment (Debye)
         X      -0.0000      Y       0.0000      Z      -0.5224
       Tot       0.5224
    Quadrupole Moments (Debye-Ang)
        XX     -61.3807     XY      -0.8925     YY     -72.7543
        XZ      -0.0000     YZ       0.0000     ZZ     -72.7064

 Total job time:  7350.68s(wall), 38004.67s(cpu)
        *  Thank you very much for using Q-Chem.  Have a nice day.  *
