 Q-Chem 4.4, Q-Chem, Inc., Pleasanton, CA (2016)
 Q-Chem 4.4.1 for Intel X86 EM64T Linux

User input:
--------------------------------------------------------------
$molecule
 0  1
 S           1.80900300       -1.15938900        0.25896800
 C           3.16466000       -0.14246800        0.05606700
 C           2.78757500        1.14089100       -0.25226100
 C           1.39402000        1.28822000       -0.33563400
 C           0.70898100        0.11689900       -0.08798100
 H           0.89277600        2.20524100       -0.58940400
 C          -0.70898100       -0.11689900       -0.08798100
 S          -1.60385083       -0.08483884       -1.55682858
 C          -1.54366332       -0.38064789        0.97801397
 C          -3.06889908       -0.43831261       -0.75570876
 C          -2.88311319       -0.56146124        0.59876073
 H          -3.68212187       -0.78185532        1.28226206
 H           4.15569300       -0.53353100        0.17259300
 H           3.49202900        1.93475000       -0.41867900
 H          -3.97940013       -0.53566801       -1.31263313
 H          -1.18055489       -0.45989020        1.98719442
$end

$rem
         jobtype = opt
        exchange = hf
           basis = cc-pvtz
  max_scf_cycles = 100
      mem_static = 6200
       mem_total = 62000
          method = mp2
$end

$opt
CONSTRAINT
tors 4 5 7 9 -110.0
ENDCONSTRAINT
$end

--------------------------------------------------------------

   18   -1101.5966159011      7.69E-09 Convergence criterion met
 Total energy in the final basis set = -1101.5966159011
        MP2         total energy =     -1103.4114829343 au
   11   -1101.5972564250      6.58E-09 Convergence criterion met
 Total energy in the final basis set = -1101.5972564250
        MP2         total energy =     -1103.4117618858 au
   11   -1101.5973115562      3.88E-09 Convergence criterion met
 Total energy in the final basis set = -1101.5973115562
        MP2         total energy =     -1103.4118189114 au
   11   -1101.5973263468      4.39E-09 Convergence criterion met
 Total energy in the final basis set = -1101.5973263468
        MP2         total energy =     -1103.4118525771 au
   10   -1101.5972597073      9.21E-09 Convergence criterion met
 Total energy in the final basis set = -1101.5972597073
        MP2         total energy =     -1103.4118651108 au
   10   -1101.5972318633      5.55E-09 Convergence criterion met
 Total energy in the final basis set = -1101.5972318633
        MP2         total energy =     -1103.4118712083 au

             Standard Nuclear Orientation (Angstroms)
    I     Atom           X                Y                Z
 ----------------------------------------------------------------
    1      S       1.7586643969    -1.0288577131    -0.6331555037
    2      C       3.1555761581    -0.1847477189    -0.1419082327
    3      C       2.8350051215     0.9318140888     0.5913574693
    4      C       1.4494243820     1.0886503959     0.7562418615
    5      C       0.7161595317     0.0983480120     0.1391253095
    6      H       0.9842663455     1.8839791885     1.3102033065
    7      C      -0.7161595317    -0.0983480120     0.1391253095
    8      S      -1.7586643969     1.0288577131    -0.6331555037
    9      C      -1.4494243820    -1.0886503959     0.7562418615
   10      C      -3.1555761581     0.1847477189    -0.1419082327
   11      C      -2.8350051215    -0.9318140888     0.5913574693
   12      H      -3.5736150727    -1.5990132593     0.9957256426
   13      H       4.1296488924    -0.5420979607    -0.4110509702
   14      H       3.5736150727     1.5990132593     0.9957256426
   15      H      -4.1296488924     0.5420979607    -0.4110509702
   16      H      -0.9842663455    -1.8839791885     1.3102033065
 ----------------------------------------------------------------

    8   -1101.5972321184      9.02E-09 Convergence criterion met
 Total energy in the final basis set = -1101.5972321184
        MP2         total energy =     -1103.4118722060 au
 Final energy is   -1103.41187220604
 **  OPTIMIZATION CONVERGED  **

             Orbital Energies (a.u.) and Symmetries
 --------------------------------------------------------------

 Alpha MOs, Restricted
 -- Occupied --
-91.984 -91.984 -11.272 -11.272 -11.261 -11.261 -11.238 -11.238
  1 B     1 A     2 A     2 B     3 B     3 A     4 A     4 B
-11.236 -11.236  -8.986  -8.986  -6.667  -6.667  -6.666  -6.666
  5 B     5 A     6 B     6 A     7 B     7 A     8 A     8 B
 -6.665  -6.665  -1.195  -1.166  -1.033  -0.994  -0.988  -0.948
  9 B     9 A    10 A    10 B    11 A    11 B    12 A    12 B
 -0.806  -0.770  -0.755  -0.718  -0.704  -0.645  -0.571  -0.569
 13 A    13 B    14 A    14 B    15 A    15 B    16 A    16 B
 -0.562  -0.555  -0.540  -0.513  -0.511  -0.478  -0.473  -0.354
 17 A    17 B    18 A    18 B    19 A    19 B    20 A    21 A
 -0.345  -0.343  -0.303
 20 B    22 A    21 B

 Beta MOs, Restricted
 -- Occupied --
-91.984 -91.984 -11.272 -11.272 -11.261 -11.261 -11.238 -11.238
  1 B     1 A     2 A     2 B     3 B     3 A     4 A     4 B
-11.236 -11.236  -8.986  -8.986  -6.667  -6.667  -6.666  -6.666
  5 B     5 A     6 B     6 A     7 B     7 A     8 A     8 B
 -6.665  -6.665  -1.195  -1.166  -1.033  -0.994  -0.988  -0.948
  9 B     9 A    10 A    10 B    11 A    11 B    12 A    12 B
 -0.806  -0.770  -0.755  -0.718  -0.704  -0.645  -0.571  -0.569
 13 A    13 B    14 A    14 B    15 A    15 B    16 A    16 B
 -0.562  -0.555  -0.540  -0.513  -0.511  -0.478  -0.473  -0.354
 17 A    17 B    18 A    18 B    19 A    19 B    20 A    21 A
 -0.345  -0.343  -0.303
 20 B    22 A    21 B

          Ground-State Mulliken Net Atomic Charges

     Atom                 Charge (a.u.)
  ----------------------------------------
      1 S                     0.128154
      2 C                    -0.239076
      3 C                    -0.192262
      4 C                    -0.198823
      5 C                    -0.033833
      6 H                     0.177245
      7 C                    -0.033833
      8 S                     0.128154
      9 C                    -0.198823
     10 C                    -0.239076
     11 C                    -0.192262
     12 H                     0.174344
     13 H                     0.184251
     14 H                     0.174344
     15 H                     0.184251
     16 H                     0.177245
  ----------------------------------------
  Sum of atomic charges =    -0.000000

                    Cartesian Multipole Moments
 -----------------------------------------------------------------
    Charge (ESU x 10^10)
                -0.0000
    Dipole Moment (Debye)
         X      -0.0000      Y      -0.0000      Z       0.4841
       Tot       0.4841
    Quadrupole Moments (Debye-Ang)
        XX     -61.3356     XY       0.7087     YY     -70.8582
        XZ      -0.0000     YZ      -0.0000     ZZ     -74.7859

 Total job time:  10343.20s(wall), 54465.49s(cpu)
        *  Thank you very much for using Q-Chem.  Have a nice day.  *
