 Q-Chem 4.4, Q-Chem, Inc., Pleasanton, CA (2016)
 Q-Chem 4.4.1 for Intel X86 EM64T Linux

User input:
--------------------------------------------------------------
$molecule
 0  1
 S           1.80900300       -1.15938900        0.25896800
 C           3.16466000       -0.14246800        0.05606700
 C           2.78757500        1.14089100       -0.25226100
 C           1.39402000        1.28822000       -0.33563400
 C           0.70898100        0.11689900       -0.08798100
 H           0.89277600        2.20524100       -0.58940400
 C          -0.70898100       -0.11689900       -0.08798100
 S          -1.37343283       -1.48230148        0.72042045
 C          -1.70977178        0.62678365       -0.67786001
 C          -2.96783180       -1.05127577        0.29005806
 C          -2.99139884        0.09528068       -0.46434402
 H          -3.89896613        0.53328391       -0.83668429
 H           4.15569300       -0.53353100        0.17259300
 H           3.49202900        1.93475000       -0.41867900
 H          -3.79501048       -1.65397321        0.60815587
 H          -1.50911645        1.53280351       -1.22140185
$end

$rem
         jobtype = opt
        exchange = hf
           basis = cc-pvtz
  max_scf_cycles = 100
      mem_static = 6200
       mem_total = 62000
          method = mp2
$end

$opt
CONSTRAINT
tors 4 5 7 9 20.0
ENDCONSTRAINT
$end

--------------------------------------------------------------

   15   -1101.5965913364      8.46E-09 Convergence criterion met
 Total energy in the final basis set = -1101.5965913364
        MP2         total energy =     -1103.4126485636 au
   11   -1101.5975817656      5.98E-09 Convergence criterion met
 Total energy in the final basis set = -1101.5975817656
        MP2         total energy =     -1103.4132725739 au
   10   -1101.5976231861      8.24E-09 Convergence criterion met
 Total energy in the final basis set = -1101.5976231861
        MP2         total energy =     -1103.4133493480 au
   10   -1101.5976766481      6.00E-09 Convergence criterion met
 Total energy in the final basis set = -1101.5976766481
        MP2         total energy =     -1103.4133785553 au
    9   -1101.5976560545      8.36E-09 Convergence criterion met
 Total energy in the final basis set = -1101.5976560545
        MP2         total energy =     -1103.4133864331 au
   10   -1101.5976696905      3.53E-09 Convergence criterion met
 Total energy in the final basis set = -1101.5976696905
        MP2         total energy =     -1103.4133902675 au

             Standard Nuclear Orientation (Angstroms)
    I     Atom           X                Y                Z
 ----------------------------------------------------------------
    1      S       1.6324485452    -0.2562717275     1.1237253036
    2      C       3.1157943732    -0.0709498598     0.3006374940
    3      C       2.9191445885     0.1790139197    -1.0348381875
    4      C       1.5599928133     0.2320893202    -1.3801902740
    5      C       0.7187123306     0.0197294417    -0.3072147463
    6      H       1.1916543568     0.4426546856    -2.3680381640
    7      C      -0.7187123306    -0.0197294417    -0.3072147463
    8      S      -1.6324485452     0.2562717275     1.1237253036
    9      C      -1.5599928133    -0.2320893202    -1.3801902740
   10      C      -3.1157943732     0.0709498598     0.3006374940
   11      C      -2.9191445885    -0.1790139197    -1.0348381875
   12      H      -3.7263745963    -0.3257953792    -1.7284229457
   13      H       4.0424044213    -0.1540300729     0.8325714262
   14      H       3.7263745963     0.3257953792    -1.7284229457
   15      H      -4.0424044213     0.1540300729     0.8325714262
   16      H      -1.1916543568    -0.4426546856    -2.3680381640
 ----------------------------------------------------------------

    9   -1101.5976780775      4.73E-09 Convergence criterion met
 Total energy in the final basis set = -1101.5976780775
        MP2         total energy =     -1103.4133910468 au
 Final energy is   -1103.41339104678
 **  OPTIMIZATION CONVERGED  **

             Orbital Energies (a.u.) and Symmetries
 --------------------------------------------------------------

 Alpha MOs, Restricted
 -- Occupied --
-91.985 -91.985 -11.275 -11.274 -11.261 -11.261 -11.238 -11.238
  1 A     1 B     2 A     2 B     3 B     3 A     4 B     4 A
-11.237 -11.237  -8.986  -8.986  -6.667  -6.667  -6.667  -6.667
  5 B     5 A     6 B     6 A     7 B     7 A     8 A     8 B
 -6.666  -6.666  -1.197  -1.167  -1.036  -1.000  -0.985  -0.948
  9 A     9 B    10 A    10 B    11 A    12 A    11 B    12 B
 -0.810  -0.779  -0.747  -0.717  -0.708  -0.645  -0.575  -0.571
 13 A    14 A    13 B    14 B    15 A    15 B    16 A    17 A
 -0.561  -0.553  -0.542  -0.512  -0.511  -0.488  -0.465  -0.374
 16 B    17 B    18 A    19 A    18 B    20 A    19 B    20 B
 -0.354  -0.347  -0.279
 21 B    21 A    22 A

 Beta MOs, Restricted
 -- Occupied --
-91.985 -91.985 -11.275 -11.274 -11.261 -11.261 -11.238 -11.238
  1 A     1 B     2 A     2 B     3 B     3 A     4 B     4 A
-11.237 -11.237  -8.986  -8.986  -6.667  -6.667  -6.667  -6.667
  5 B     5 A     6 B     6 A     7 B     7 A     8 A     8 B
 -6.666  -6.666  -1.197  -1.167  -1.036  -1.000  -0.985  -0.948
  9 A     9 B    10 A    10 B    11 A    12 A    11 B    12 B
 -0.810  -0.779  -0.747  -0.717  -0.708  -0.645  -0.575  -0.571
 13 A    14 A    13 B    14 B    15 A    15 B    16 A    17 A
 -0.561  -0.553  -0.542  -0.512  -0.511  -0.488  -0.465  -0.374
 16 B    17 B    18 A    19 A    18 B    20 A    19 B    20 B
 -0.354  -0.347  -0.279
 21 B    21 A    22 A

          Ground-State Mulliken Net Atomic Charges

     Atom                 Charge (a.u.)
  ----------------------------------------
      1 S                     0.106611
      2 C                    -0.237647
      3 C                    -0.201645
      4 C                    -0.188431
      5 C                    -0.005447
      6 H                     0.166777
      7 C                    -0.005447
      8 S                     0.106611
      9 C                    -0.188431
     10 C                    -0.237647
     11 C                    -0.201645
     12 H                     0.173993
     13 H                     0.185789
     14 H                     0.173993
     15 H                     0.185789
     16 H                     0.166777
  ----------------------------------------
  Sum of atomic charges =    -0.000000

                    Cartesian Multipole Moments
 -----------------------------------------------------------------
    Charge (ESU x 10^10)
                 0.0000
    Dipole Moment (Debye)
         X       0.0000      Y      -0.0000      Z      -0.7225
       Tot       0.7225
    Quadrupole Moments (Debye-Ang)
        XX     -61.0339     XY       0.2529     YY     -77.7029
        XZ      -0.0000     YZ       0.0000     ZZ     -67.8400

 Total job time:  10539.52s(wall), 54444.31s(cpu)
        *  Thank you very much for using Q-Chem.  Have a nice day.  *
