 Q-Chem 4.4, Q-Chem, Inc., Pleasanton, CA (2016)
 Q-Chem 4.4.1 for Intel X86 EM64T Linux

User input:
--------------------------------------------------------------
$molecule
 0  1
 S           1.80900300       -1.15938900        0.25896800
 C           3.16466000       -0.14246800        0.05606700
 C           2.78757500        1.14089100       -0.25226100
 C           1.39402000        1.28822000       -0.33563400
 C           0.70898100        0.11689900       -0.08798100
 H           0.89277600        2.20524100       -0.58940400
 C          -0.70898100       -0.11689900       -0.08798100
 S          -1.77660743        0.96291301       -0.89638245
 C          -1.41804546       -1.14250792        0.50189801
 C          -3.14823301        0.04283991       -0.46602006
 C          -2.80246397       -1.05059086        0.28838202
 H          -3.52137443       -1.75677283        0.66072229
 H           4.15569300       -0.53353100        0.17259300
 H           3.49202900        1.93475000       -0.41867900
 H          -4.12511496        0.34807821       -0.78411787
 H          -0.93714446       -1.93615065        1.04543985
$end

$rem
         jobtype = opt
        exchange = hf
           basis = cc-pvtz
  max_scf_cycles = 100
      mem_static = 6200
       mem_total = 62000
          method = mp2
$end

$opt
CONSTRAINT
tors 4 5 7 9 -160.0
ENDCONSTRAINT
$end

--------------------------------------------------------------

   15   -1101.5988311024      8.79E-09 Convergence criterion met
 Total energy in the final basis set = -1101.5988311024
        MP2         total energy =     -1103.4138442410 au
   11   -1101.5991640689      3.67E-09 Convergence criterion met
 Total energy in the final basis set = -1101.5991640689
        MP2         total energy =     -1103.4141439235 au
    9   -1101.5991852210      5.91E-09 Convergence criterion met
 Total energy in the final basis set = -1101.5991852210
        MP2         total energy =     -1103.4141810442 au
    9   -1101.5991981955      4.96E-09 Convergence criterion met
 Total energy in the final basis set = -1101.5991981955
        MP2         total energy =     -1103.4141921015 au
    9   -1101.5991939501      5.33E-09 Convergence criterion met
 Total energy in the final basis set = -1101.5991939501
        MP2         total energy =     -1103.4141940468 au

             Standard Nuclear Orientation (Angstroms)
    I     Atom           X                Y                Z
 ----------------------------------------------------------------
    1      S       1.8113982841    -1.1770418086    -0.2187104968
    2      C       3.1659873217    -0.1495790095    -0.0658129333
    3      C       2.7872223899     1.1482673921     0.1702190627
    4      C       1.3932488101     1.2993119014     0.2373218437
    5      C       0.7088521651     0.1161681640     0.0509645258
    6      H       0.8919022391     2.2299491547     0.4356363323
    7      C      -0.7088521651    -0.1161681640     0.0509645258
    8      S      -1.8113982841     1.1770418086    -0.2187104968
    9      C      -1.3932488101    -1.2993119014     0.2373218437
   10      C      -3.1659873217     0.1495790095    -0.0658129333
   11      C      -2.7872223899    -1.1482673921     0.1702190627
   12      H      -3.4904679771    -1.9506244104     0.2959077897
   13      H       4.1573062773    -0.5466014593    -0.1567170186
   14      H       3.4904679771     1.9506244104     0.2959077897
   15      H      -4.1573062773     0.5466014593    -0.1567170186
   16      H      -0.8919022391    -2.2299491547     0.4356363323
 ----------------------------------------------------------------

    9   -1101.5991985224      4.80E-09 Convergence criterion met
 Total energy in the final basis set = -1101.5991985224
        MP2         total energy =     -1103.4141949024 au
 Final energy is   -1103.41419490244
 **  OPTIMIZATION CONVERGED  **

             Orbital Energies (a.u.) and Symmetries
 --------------------------------------------------------------

 Alpha MOs, Restricted
 -- Occupied --
-91.984 -91.984 -11.276 -11.275 -11.262 -11.261 -11.239 -11.239
  1 A     1 B     2 A     2 B     3 B     3 A     4 B     4 A
-11.237 -11.237  -8.986  -8.986  -6.667  -6.667  -6.667  -6.667
  5 A     5 B     6 A     6 B     7 B     7 A     8 A     8 B
 -6.666  -6.666  -1.197  -1.167  -1.036  -1.000  -0.985  -0.948
  9 B     9 A    10 A    10 B    11 A    11 B    12 A    12 B
 -0.810  -0.781  -0.745  -0.718  -0.708  -0.645  -0.572  -0.572
 13 A    13 B    14 A    14 B    15 A    15 B    16 A    16 B
 -0.558  -0.555  -0.549  -0.513  -0.513  -0.483  -0.466  -0.375
 17 A    17 B    18 A    18 B    19 A    19 B    20 A    21 A
 -0.354  -0.348  -0.279
 20 B    22 A    21 B

 Beta MOs, Restricted
 -- Occupied --
-91.984 -91.984 -11.276 -11.275 -11.262 -11.261 -11.239 -11.239
  1 A     1 B     2 A     2 B     3 B     3 A     4 B     4 A
-11.237 -11.237  -8.986  -8.986  -6.667  -6.667  -6.667  -6.667
  5 A     5 B     6 A     6 B     7 B     7 A     8 A     8 B
 -6.666  -6.666  -1.197  -1.167  -1.036  -1.000  -0.985  -0.948
  9 B     9 A    10 A    10 B    11 A    11 B    12 A    12 B
 -0.810  -0.781  -0.745  -0.718  -0.708  -0.645  -0.572  -0.572
 13 A    13 B    14 A    14 B    15 A    15 B    16 A    16 B
 -0.558  -0.555  -0.549  -0.513  -0.513  -0.483  -0.466  -0.375
 17 A    17 B    18 A    18 B    19 A    19 B    20 A    21 A
 -0.354  -0.348  -0.279
 20 B    22 A    21 B

          Ground-State Mulliken Net Atomic Charges

     Atom                 Charge (a.u.)
  ----------------------------------------
      1 S                     0.107282
      2 C                    -0.237968
      3 C                    -0.196006
      4 C                    -0.217397
      5 C                     0.020308
      6 H                     0.163709
      7 C                     0.020308
      8 S                     0.107282
      9 C                    -0.217397
     10 C                    -0.237968
     11 C                    -0.196006
     12 H                     0.174850
     13 H                     0.185222
     14 H                     0.174850
     15 H                     0.185222
     16 H                     0.163709
  ----------------------------------------
  Sum of atomic charges =    -0.000000

                    Cartesian Multipole Moments
 -----------------------------------------------------------------
    Charge (ESU x 10^10)
                -0.0000
    Dipole Moment (Debye)
         X       0.0000      Y      -0.0000      Z       0.1607
       Tot       0.1607
    Quadrupole Moments (Debye-Ang)
        XX     -61.1622     XY       0.9694     YY     -68.1360
        XZ      -0.0000     YZ      -0.0000     ZZ     -77.7649

 Total job time:  8924.25s(wall), 46436.28s(cpu)
        *  Thank you very much for using Q-Chem.  Have a nice day.  *
