 Q-Chem 4.4, Q-Chem, Inc., Pleasanton, CA (2016)
 Q-Chem 4.4.1 for Intel X86 EM64T Linux

User input:
--------------------------------------------------------------
$molecule
 0  1
 S           1.80900300       -1.15938900        0.25896800
 C           3.16466000       -0.14246800        0.05606700
 C           2.78757500        1.14089100       -0.25226100
 C           1.39402000        1.28822000       -0.33563400
 C           0.70898100        0.11689900       -0.08798100
 H           0.89277600        2.20524100       -0.58940400
 C          -0.70898100       -0.11689900       -0.08798100
 S          -1.38248858       -1.42737923       -0.97587861
 C          -1.70397470        0.59162494        0.55278782
 C          -2.96938914       -1.04183066       -0.47969120
 C          -2.98677779        0.06725443        0.32894807
 H          -3.88920052        0.47405643        0.74644999
 H           4.15569300       -0.53353100        0.17259300
 H           3.49202900        1.93475000       -0.41867900
 H          -3.79718938       -1.64075836       -0.80324545
 H          -1.49421550        1.44243071        1.17624824
$end

$rem
         jobtype = opt
        exchange = hf
           basis = cc-pvtz
  max_scf_cycles = 100
      mem_static = 6200
       mem_total = 62000
          method = mp2
$end

$opt
CONSTRAINT
tors 4 5 7 9 -50.0
ENDCONSTRAINT
$end

--------------------------------------------------------------

   18   -1101.5975773735      4.03E-09 Convergence criterion met
 Total energy in the final basis set = -1101.5975773735
        MP2         total energy =     -1103.4127815494 au
   10   -1101.5980529148      6.21E-09 Convergence criterion met
 Total energy in the final basis set = -1101.5980529148
        MP2         total energy =     -1103.4129572114 au
   10   -1101.5981386940      6.60E-09 Convergence criterion met
 Total energy in the final basis set = -1101.5981386940
        MP2         total energy =     -1103.4129824387 au
   10   -1101.5981421620      4.40E-09 Convergence criterion met
 Total energy in the final basis set = -1101.5981421620
        MP2         total energy =     -1103.4129875024 au
   10   -1101.5980973805      3.60E-09 Convergence criterion met
 Total energy in the final basis set = -1101.5980973805
        MP2         total energy =     -1103.4129894220 au

             Standard Nuclear Orientation (Angstroms)
    I     Atom           X                Y                Z
 ----------------------------------------------------------------
    1      S       1.6441095231     0.5219445730     1.0445794394
    2      C       3.1168135716     0.0998557646     0.2950421088
    3      C       2.9093731523    -0.4427042963    -0.9494004644
    4      C       1.5474893091    -0.5257545418    -1.2810386242
    5      C       0.7200460452    -0.0306434488    -0.2956780820
    6      H       1.1624678470    -0.9437859088    -2.1936599942
    7      C      -0.7200460452     0.0306434488    -0.2956780820
    8      S      -1.6441095231    -0.5219445730     1.0445794394
    9      C      -1.5474893091     0.5257545418    -1.2810386242
   10      C      -3.1168135716    -0.0998557646     0.2950421088
   11      C      -2.9093731523     0.4427042963    -0.9494004644
   12      H      -3.7098684205     0.7764379966    -1.5835000107
   13      H       4.0484138073     0.2688546079     0.7973730629
   14      H       3.7098684205    -0.7764379966    -1.5835000107
   15      H      -4.0484138073    -0.2688546079     0.7973730629
   16      H      -1.1624678470     0.9437859088    -2.1936599942
 ----------------------------------------------------------------

    9   -1101.5980778274      4.29E-09 Convergence criterion met
 Total energy in the final basis set = -1101.5980778274
        MP2         total energy =     -1103.4129902255 au
 Final energy is   -1103.41299022547
 **  OPTIMIZATION CONVERGED  **

             Orbital Energies (a.u.) and Symmetries
 --------------------------------------------------------------

 Alpha MOs, Restricted
 -- Occupied --
-91.984 -91.984 -11.273 -11.273 -11.261 -11.261 -11.238 -11.238
  1 B     1 A     2 A     2 B     3 B     3 A     4 B     4 A
-11.237 -11.237  -8.986  -8.986  -6.667  -6.667  -6.667  -6.667
  5 B     5 A     6 B     6 A     7 B     7 A     8 A     8 B
 -6.666  -6.666  -1.196  -1.166  -1.034  -0.997  -0.987  -0.948
  9 B     9 A    10 A    10 B    11 A    12 A    11 B    12 B
 -0.808  -0.773  -0.753  -0.718  -0.705  -0.645  -0.572  -0.569
 13 A    14 A    13 B    14 B    15 A    15 B    16 A    17 A
 -0.564  -0.553  -0.539  -0.512  -0.512  -0.483  -0.470  -0.358
 16 B    17 B    18 A    19 A    18 B    20 A    19 B    20 B
 -0.352  -0.348  -0.291
 21 A    21 B    22 A

 Beta MOs, Restricted
 -- Occupied --
-91.984 -91.984 -11.273 -11.273 -11.261 -11.261 -11.238 -11.238
  1 B     1 A     2 A     2 B     3 B     3 A     4 B     4 A
-11.237 -11.237  -8.986  -8.986  -6.667  -6.667  -6.667  -6.667
  5 B     5 A     6 B     6 A     7 B     7 A     8 A     8 B
 -6.666  -6.666  -1.196  -1.166  -1.034  -0.997  -0.987  -0.948
  9 B     9 A    10 A    10 B    11 A    12 A    11 B    12 B
 -0.808  -0.773  -0.753  -0.718  -0.705  -0.645  -0.572  -0.569
 13 A    14 A    13 B    14 B    15 A    15 B    16 A    17 A
 -0.564  -0.553  -0.539  -0.512  -0.512  -0.483  -0.470  -0.358
 16 B    17 B    18 A    19 A    18 B    20 A    19 B    20 B
 -0.352  -0.348  -0.291
 21 A    21 B    22 A

          Ground-State Mulliken Net Atomic Charges

     Atom                 Charge (a.u.)
  ----------------------------------------
      1 S                     0.118903
      2 C                    -0.237553
      3 C                    -0.193489
      4 C                    -0.196975
      5 C                    -0.024782
      6 H                     0.175190
      7 C                    -0.024782
      8 S                     0.118903
      9 C                    -0.196975
     10 C                    -0.237553
     11 C                    -0.193489
     12 H                     0.174196
     13 H                     0.184510
     14 H                     0.174196
     15 H                     0.184510
     16 H                     0.175190
  ----------------------------------------
  Sum of atomic charges =    -0.000000

                    Cartesian Multipole Moments
 -----------------------------------------------------------------
    Charge (ESU x 10^10)
                 0.0000
    Dipole Moment (Debye)
         X      -0.0000      Y      -0.0000      Z      -0.6376
       Tot       0.6376
    Quadrupole Moments (Debye-Ang)
        XX     -61.2139     XY      -0.7814     YY     -76.2056
        XZ      -0.0000     YZ       0.0000     ZZ     -69.2779

 Total job time:  8618.09s(wall), 46406.18s(cpu)
        *  Thank you very much for using Q-Chem.  Have a nice day.  *
