 Q-Chem 4.4, Q-Chem, Inc., Pleasanton, CA (2016)
 Q-Chem 4.4.1 for Intel X86 EM64T Linux

User input:
--------------------------------------------------------------
$molecule
 0  1
 S           1.80900300       -1.15938900        0.25896800
 C           3.16466000       -0.14246800        0.05606700
 C           2.78757500        1.14089100       -0.25226100
 C           1.39402000        1.28822000       -0.33563400
 C           0.70898100        0.11689900       -0.08798100
 H           0.89277600        2.20524100       -0.58940400
 C          -0.70898100       -0.11689900       -0.08798100
 S          -1.56191757       -0.33915999       -1.56528677
 C          -1.57408548       -0.19614046        0.98342852
 C          -3.04987054       -0.55371886       -0.75716334
 C          -2.90272372       -0.44252528        0.60307685
 H          -3.72125766       -0.54450063        1.29138327
 H           4.15569300       -0.53353100        0.17259300
 H           3.49202900        1.93475000       -0.41867900
 H          -3.94450966       -0.74727528       -1.31466825
 H          -1.23982586       -0.10041754        2.00111211
$end

$rem
         jobtype = opt
        exchange = hf
           basis = cc-pvtz
  max_scf_cycles = 100
      mem_static = 6200
       mem_total = 62000
          method = mp2
$end

$opt
CONSTRAINT
tors 4 5 7 9 -100.0
ENDCONSTRAINT
$end

--------------------------------------------------------------

   19   -1101.5958838924      2.79E-09 Convergence criterion met
 Total energy in the final basis set = -1101.5958838924
        MP2         total energy =     -1103.4108192049 au
   11   -1101.5966491853      6.64E-09 Convergence criterion met
 Total energy in the final basis set = -1101.5966491853
        MP2         total energy =     -1103.4111135352 au
   10   -1101.5966783985      7.88E-09 Convergence criterion met
 Total energy in the final basis set = -1101.5966783985
        MP2         total energy =     -1103.4111457620 au
   10   -1101.5966988513      8.19E-09 Convergence criterion met
 Total energy in the final basis set = -1101.5966988513
        MP2         total energy =     -1103.4111621161 au
   10   -1101.5966526600      6.25E-09 Convergence criterion met
 Total energy in the final basis set = -1101.5966526600
        MP2         total energy =     -1103.4111690959 au
   10   -1101.5966214600      5.13E-09 Convergence criterion met
 Total energy in the final basis set = -1101.5966214600
        MP2         total energy =     -1103.4111734355 au

             Standard Nuclear Orientation (Angstroms)
    I     Atom           X                Y                Z
 ----------------------------------------------------------------
    1      S       1.7378263682    -0.9643348479    -0.7201168700
    2      C       3.1498072897    -0.1780331828    -0.1800204279
    3      C       2.8520312178     0.8633883358     0.6650135459
    4      C       1.4708734524     1.0116450985     0.8708294652
    5      C       0.7185792033     0.0880507418     0.1783708236
    6      H       1.0217827188     1.7568529564     1.5022768394
    7      C      -0.7185792033    -0.0880507418     0.1783708236
    8      S      -1.7378263682     0.9643348479    -0.7201168700
    9      C      -1.4708734524    -1.0116450985     0.8708294652
   10      C      -3.1498072897     0.1780331828    -0.1800204279
   11      C      -2.8520312178    -0.8633883358     0.6650135459
   12      H      -3.6032081195    -1.4852923556     1.1157005550
   13      H       4.1158683552    -0.5121274179    -0.5026811796
   14      H       3.6032081195     1.4852923556     1.1157005550
   15      H      -4.1158683552     0.5121274179    -0.5026811796
   16      H      -1.0217827188    -1.7568529564     1.5022768394
 ----------------------------------------------------------------

    9   -1101.5966201907      5.00E-09 Convergence criterion met
 Total energy in the final basis set = -1101.5966201907
        MP2         total energy =     -1103.4111744323 au
 Final energy is   -1103.41117443232
 **  OPTIMIZATION CONVERGED  **

             Orbital Energies (a.u.) and Symmetries
 --------------------------------------------------------------

 Alpha MOs, Restricted
 -- Occupied --
-91.984 -91.984 -11.272 -11.271 -11.261 -11.261 -11.238 -11.238
  1 B     1 A     2 A     2 B     3 B     3 A     4 A     4 B
-11.236 -11.236  -8.985  -8.985  -6.666  -6.666  -6.666  -6.666
  5 B     5 A     6 B     6 A     7 B     7 A     8 A     8 B
 -6.665  -6.665  -1.194  -1.166  -1.032  -0.993  -0.989  -0.948
  9 B     9 A    10 A    10 B    11 A    11 B    12 A    12 B
 -0.806  -0.767  -0.758  -0.718  -0.703  -0.645  -0.570  -0.568
 13 A    13 B    14 A    14 B    15 A    15 B    16 A    16 B
 -0.563  -0.555  -0.539  -0.513  -0.511  -0.477  -0.474  -0.354
 17 A    17 B    18 A    18 B    19 A    19 B    20 A    21 A
 -0.344  -0.334  -0.312
 20 B    22 A    21 B

 Beta MOs, Restricted
 -- Occupied --
-91.984 -91.984 -11.272 -11.271 -11.261 -11.261 -11.238 -11.238
  1 B     1 A     2 A     2 B     3 B     3 A     4 A     4 B
-11.236 -11.236  -8.985  -8.985  -6.666  -6.666  -6.666  -6.666
  5 B     5 A     6 B     6 A     7 B     7 A     8 A     8 B
 -6.665  -6.665  -1.194  -1.166  -1.032  -0.993  -0.989  -0.948
  9 B     9 A    10 A    10 B    11 A    11 B    12 A    12 B
 -0.806  -0.767  -0.758  -0.718  -0.703  -0.645  -0.570  -0.568
 13 A    13 B    14 A    14 B    15 A    15 B    16 A    16 B
 -0.563  -0.555  -0.539  -0.513  -0.511  -0.477  -0.474  -0.354
 17 A    17 B    18 A    18 B    19 A    19 B    20 A    21 A
 -0.344  -0.334  -0.312
 20 B    22 A    21 B

          Ground-State Mulliken Net Atomic Charges

     Atom                 Charge (a.u.)
  ----------------------------------------
      1 S                     0.130841
      2 C                    -0.239804
      3 C                    -0.191632
      4 C                    -0.194199
      5 C                    -0.040843
      6 H                     0.176817
      7 C                    -0.040843
      8 S                     0.130841
      9 C                    -0.194199
     10 C                    -0.239804
     11 C                    -0.191632
     12 H                     0.174564
     13 H                     0.184255
     14 H                     0.174564
     15 H                     0.184255
     16 H                     0.176817
  ----------------------------------------
  Sum of atomic charges =     0.000000

                    Cartesian Multipole Moments
 -----------------------------------------------------------------
    Charge (ESU x 10^10)
                -0.0000
    Dipole Moment (Debye)
         X       0.0000      Y       0.0000      Z       0.5096
       Tot       0.5096
    Quadrupole Moments (Debye-Ang)
        XX     -61.3623     XY       0.7729     YY     -71.7408
        XZ       0.0000     YZ      -0.0000     ZZ     -73.8085

 Total job time:  10255.07s(wall), 53556.82s(cpu)
        *  Thank you very much for using Q-Chem.  Have a nice day.  *
