 Q-Chem 4.4, Q-Chem, Inc., Pleasanton, CA (2016)
 Q-Chem 4.4.1 for Intel X86 EM64T Linux

User input:
--------------------------------------------------------------
$molecule
 0  1
 S           1.80900300       -1.15938900        0.25896800
 C           3.16466000       -0.14246800        0.05606700
 C           2.78757500        1.14089100       -0.25226100
 C           1.39402000        1.28822000       -0.33563400
 C           0.70898100        0.11689900       -0.08798100
 H           0.89277600        2.20524100       -0.58940400
 C          -0.70898100       -0.11689900       -0.08798100
 S          -1.35365788       -1.60223463        0.49296896
 C          -1.72422000        0.71441070       -0.51320715
 C          -2.95852247       -1.10773598        0.18803656
 C          -3.00059601        0.15106058       -0.35779365
 H          -3.91724893        0.64416729       -0.62379307
 H           4.15569300       -0.53353100        0.17259300
 H           3.49202900        1.93475000       -0.41867900
 H          -3.77785198       -1.75803785        0.42140668
 H          -1.53679106        1.70064735       -0.89892718
$end

$rem
         jobtype = opt
        exchange = hf
           basis = cc-pvtz
  max_scf_cycles = 100
      mem_static = 6200
       mem_total = 62000
          method = mp2
$end

$opt
CONSTRAINT
tors 4 5 7 9 10.0
ENDCONSTRAINT
$end

--------------------------------------------------------------

   15   -1101.5962985298      4.98E-09 Convergence criterion met
 Total energy in the final basis set = -1101.5962985298
        MP2         total energy =     -1103.4125941052 au
   11   -1101.5971108747      4.81E-09 Convergence criterion met
 Total energy in the final basis set = -1101.5971108747
        MP2         total energy =     -1103.4129848337 au
   10   -1101.5970744897      7.53E-09 Convergence criterion met
 Total energy in the final basis set = -1101.5970744897
        MP2         total energy =     -1103.4130324930 au
   10   -1101.5970950185      4.72E-09 Convergence criterion met
 Total energy in the final basis set = -1101.5970950185
        MP2         total energy =     -1103.4130506454 au
    9   -1101.5970821325      8.38E-09 Convergence criterion met
 Total energy in the final basis set = -1101.5970821325
        MP2         total energy =     -1103.4130581510 au
   10   -1101.5970947136      3.08E-09 Convergence criterion met
 Total energy in the final basis set = -1101.5970947136
        MP2         total energy =     -1103.4130614124 au

             Standard Nuclear Orientation (Angstroms)
    I     Atom           X                Y                Z
 ----------------------------------------------------------------
    1      S       1.6296267098    -0.1387988756     1.1404843139
    2      C       3.1158482915    -0.0431114893     0.3071506783
    3      C       2.9225901178     0.0888599322    -1.0453835253
    4      C       1.5645997134     0.1199765421    -1.3967710193
    5      C       0.7190023515     0.0114839283    -0.3112064772
    6      H       1.2025156856     0.2347009161    -2.4024718166
    7      C      -0.7190023515    -0.0114839283    -0.3112064772
    8      S      -1.6296267098     0.1387988756     1.1404843139
    9      C      -1.5645997134    -0.1199765421    -1.3967710193
   10      C      -3.1158482915     0.0431114893     0.3071506783
   11      C      -2.9225901178    -0.0888599322    -1.0453835253
   12      H      -3.7314967713    -0.1645000723    -1.7483506256
   13      H       4.0405146140    -0.0883762705     0.8468742728
   14      H       3.7314967713     0.1645000723    -1.7483506256
   15      H      -4.0405146140     0.0883762705     0.8468742728
   16      H      -1.2025156856    -0.2347009161    -2.4024718166
 ----------------------------------------------------------------

    9   -1101.5971068528      6.21E-09 Convergence criterion met
 Total energy in the final basis set = -1101.5971068528
        MP2         total energy =     -1103.4130623380 au
 Final energy is   -1103.41306233803
 **  OPTIMIZATION CONVERGED  **

             Orbital Energies (a.u.) and Symmetries
 --------------------------------------------------------------

 Alpha MOs, Restricted
 -- Occupied --
-91.985 -91.985 -11.276 -11.275 -11.261 -11.261 -11.238 -11.238
  1 A     1 B     2 A     2 B     3 B     3 A     4 B     4 A
-11.237 -11.237  -8.986  -8.986  -6.667  -6.667  -6.667  -6.667
  5 B     5 A     6 B     6 A     7 B     7 A     8 B     8 A
 -6.666  -6.666  -1.197  -1.167  -1.036  -1.001  -0.985  -0.948
  9 A     9 B    10 A    10 B    11 A    12 A    11 B    12 B
 -0.810  -0.780  -0.746  -0.717  -0.709  -0.645  -0.575  -0.572
 13 A    14 A    13 B    14 B    15 A    15 B    16 A    17 A
 -0.559  -0.555  -0.543  -0.512  -0.511  -0.489  -0.464  -0.378
 16 B    17 B    18 A    19 A    18 B    20 A    19 B    20 B
 -0.356  -0.346  -0.277
 21 B    21 A    22 A

 Beta MOs, Restricted
 -- Occupied --
-91.985 -91.985 -11.276 -11.275 -11.261 -11.261 -11.238 -11.238
  1 A     1 B     2 A     2 B     3 B     3 A     4 B     4 A
-11.237 -11.237  -8.986  -8.986  -6.667  -6.667  -6.667  -6.667
  5 B     5 A     6 B     6 A     7 B     7 A     8 B     8 A
 -6.666  -6.666  -1.197  -1.167  -1.036  -1.001  -0.985  -0.948
  9 A     9 B    10 A    10 B    11 A    12 A    11 B    12 B
 -0.810  -0.780  -0.746  -0.717  -0.709  -0.645  -0.575  -0.572
 13 A    14 A    13 B    14 B    15 A    15 B    16 A    17 A
 -0.559  -0.555  -0.543  -0.512  -0.511  -0.489  -0.464  -0.378
 16 B    17 B    18 A    19 A    18 B    20 A    19 B    20 B
 -0.356  -0.346  -0.277
 21 B    21 A    22 A

          Ground-State Mulliken Net Atomic Charges

     Atom                 Charge (a.u.)
  ----------------------------------------
      1 S                     0.102294
      2 C                    -0.236466
      3 C                    -0.205980
      4 C                    -0.181424
      5 C                    -0.003703
      6 H                     0.164876
      7 C                    -0.003703
      8 S                     0.102294
      9 C                    -0.181424
     10 C                    -0.236466
     11 C                    -0.205980
     12 H                     0.173924
     13 H                     0.186479
     14 H                     0.173924
     15 H                     0.186479
     16 H                     0.164876
  ----------------------------------------
  Sum of atomic charges =     0.000000

                    Cartesian Multipole Moments
 -----------------------------------------------------------------
    Charge (ESU x 10^10)
                 0.0000
    Dipole Moment (Debye)
         X       0.0000      Y       0.0000      Z      -0.7377
       Tot       0.7377
    Quadrupole Moments (Debye-Ang)
        XX     -61.0052     XY       0.1048     YY     -78.0063
        XZ       0.0000     YZ      -0.0000     ZZ     -67.5287

 Total job time:  10449.33s(wall), 54704.49s(cpu)
        *  Thank you very much for using Q-Chem.  Have a nice day.  *
