 Q-Chem 4.4, Q-Chem, Inc., Pleasanton, CA (2016)
 Q-Chem 4.4.1 for Intel X86 EM64T Linux

User input:
--------------------------------------------------------------
$molecule
 0  1
 S           1.80900300       -1.15938900        0.25896800
 C           3.16466000       -0.14246800        0.05606700
 C           2.78757500        1.14089100       -0.25226100
 C           1.39402000        1.28822000       -0.33563400
 C           0.70898100        0.11689900       -0.08798100
 H           0.89277600        2.20524100       -0.58940400
 C          -0.70898100       -0.11689900       -0.08798100
 S          -1.58812269       -0.18022848        1.38932477
 C          -1.55373176       -0.31958381       -1.15939052
 C          -3.06619427       -0.45471699        0.58120134
 C          -2.89113909       -0.51278491       -0.77903885
 H          -3.69908291       -0.67898828       -1.46734527
 H           4.15569300       -0.53353100        0.17259300
 H           3.49202900        1.93475000       -0.41867900
 H          -3.97561578       -0.55861972        1.13870625
 H          -1.20643504       -0.30292959       -2.17707411
$end

$rem
         jobtype = opt
        exchange = hf
           basis = cc-pvtz
  max_scf_cycles = 100
      mem_static = 6200
       mem_total = 62000
          method = mp2
$end

$opt
CONSTRAINT
tors 4 5 7 9 80.0
ENDCONSTRAINT
$end

--------------------------------------------------------------

   20   -1101.5956382534      4.60E-09 Convergence criterion met
 Total energy in the final basis set = -1101.5956382534
        MP2         total energy =     -1103.4106419174 au
   11   -1101.5965252754      7.23E-09 Convergence criterion met
 Total energy in the final basis set = -1101.5965252754
        MP2         total energy =     -1103.4109681769 au
   10   -1101.5965605776      5.06E-09 Convergence criterion met
 Total energy in the final basis set = -1101.5965605776
        MP2         total energy =     -1103.4109966486 au
    9   -1101.5965786189      7.29E-09 Convergence criterion met
 Total energy in the final basis set = -1101.5965786189
        MP2         total energy =     -1103.4110036445 au
    8   -1101.5965515996      8.46E-09 Convergence criterion met
 Total energy in the final basis set = -1101.5965515996
        MP2         total energy =     -1103.4110050790 au

             Standard Nuclear Orientation (Angstroms)
    I     Atom           X                Y                Z
 ----------------------------------------------------------------
    1      S      -1.6829960945     0.7957293671     0.8754715638
    2      C      -3.1306076831     0.1519409388     0.2480383402
    3      C      -2.8881677492    -0.6947699813    -0.8061167685
    4      C      -1.5189405605    -0.8178112361    -1.0933898150
    5      C      -0.7218070442    -0.0575979912    -0.2658395361
    6      H      -1.1084743961    -1.4374364520    -1.8700830123
    7      C       0.7218070442     0.0575979912    -0.2658395361
    8      S       1.6829960945    -0.7957293671     0.8754715638
    9      C       1.5189405605     0.8178112361    -1.0933898150
   10      C       3.1306076831    -0.1519409388     0.2480383402
   11      C       2.8881677492     0.6947699813    -0.8061167685
   12      H       3.6689096189     1.2046390185    -1.3395903798
   13      H      -4.0758915145     0.4219149470     0.6753053675
   14      H      -3.6689096189    -1.2046390185    -1.3395903798
   15      H       4.0758915145    -0.4219149470     0.6753053675
   16      H       1.1084743961     1.4374364520    -1.8700830123
 ----------------------------------------------------------------

    9   -1101.5965412992      4.70E-09 Convergence criterion met
 Total energy in the final basis set = -1101.5965412992
        MP2         total energy =     -1103.4110057377 au
 Final energy is   -1103.41100573766
 **  OPTIMIZATION CONVERGED  **

             Orbital Energies (a.u.) and Symmetries
 --------------------------------------------------------------

 Alpha MOs, Restricted
 -- Occupied --
-91.984 -91.984 -11.271 -11.271 -11.261 -11.261 -11.238 -11.238
  1 B     1 A     2 A     2 B     3 B     3 A     4 B     4 A
-11.236 -11.236  -8.985  -8.985  -6.666  -6.666  -6.666  -6.666
  5 A     5 B     6 B     6 A     7 A     7 B     8 A     8 B
 -6.665  -6.665  -1.194  -1.166  -1.032  -0.992  -0.990  -0.948
  9 B     9 A    10 A    10 B    11 A    12 A    11 B    12 B
 -0.806  -0.765  -0.761  -0.718  -0.703  -0.645  -0.570  -0.567
 13 A    14 A    13 B    14 B    15 A    15 B    16 A    16 B
 -0.566  -0.554  -0.537  -0.512  -0.512  -0.477  -0.475  -0.354
 17 A    17 B    18 A    18 B    19 A    20 A    19 B    21 A
 -0.344  -0.332  -0.313
 20 B    21 B    22 A

 Beta MOs, Restricted
 -- Occupied --
-91.984 -91.984 -11.271 -11.271 -11.261 -11.261 -11.238 -11.238
  1 B     1 A     2 A     2 B     3 B     3 A     4 B     4 A
-11.236 -11.236  -8.985  -8.985  -6.666  -6.666  -6.666  -6.666
  5 A     5 B     6 B     6 A     7 A     7 B     8 A     8 B
 -6.665  -6.665  -1.194  -1.166  -1.032  -0.992  -0.990  -0.948
  9 B     9 A    10 A    10 B    11 A    12 A    11 B    12 B
 -0.806  -0.765  -0.761  -0.718  -0.703  -0.645  -0.570  -0.567
 13 A    14 A    13 B    14 B    15 A    15 B    16 A    16 B
 -0.566  -0.554  -0.537  -0.512  -0.512  -0.477  -0.475  -0.354
 17 A    17 B    18 A    18 B    19 A    20 A    19 B    21 A
 -0.344  -0.332  -0.313
 20 B    21 B    22 A

          Ground-State Mulliken Net Atomic Charges

     Atom                 Charge (a.u.)
  ----------------------------------------
      1 S                     0.130154
      2 C                    -0.239114
      3 C                    -0.190989
      4 C                    -0.191783
      5 C                    -0.043643
      6 H                     0.176403
      7 C                    -0.043643
      8 S                     0.130154
      9 C                    -0.191783
     10 C                    -0.239114
     11 C                    -0.190989
     12 H                     0.174698
     13 H                     0.184274
     14 H                     0.174698
     15 H                     0.184274
     16 H                     0.176403
  ----------------------------------------
  Sum of atomic charges =     0.000000

                    Cartesian Multipole Moments
 -----------------------------------------------------------------
    Charge (ESU x 10^10)
                 0.0000
    Dipole Moment (Debye)
         X       0.0000      Y       0.0000      Z      -0.5421
       Tot       0.5421
    Quadrupole Moments (Debye-Ang)
        XX     -61.3653     XY       0.9306     YY     -73.7446
        XZ       0.0000     YZ      -0.0000     ZZ     -71.6721

 Total job time:  8981.33s(wall), 46273.13s(cpu)
        *  Thank you very much for using Q-Chem.  Have a nice day.  *
