 Q-Chem 4.4, Q-Chem, Inc., Pleasanton, CA (2016)
 Q-Chem 4.4.1 for Intel X86 EM64T Linux

User input:
--------------------------------------------------------------
$molecule
 0  1
 S           1.80900300       -1.15938900        0.25896800
 C           3.16466000       -0.14246800        0.05606700
 C           2.78757500        1.14089100       -0.25226100
 C           1.39402000        1.28822000       -0.33563400
 C           0.70898100        0.11689900       -0.08798100
 H           0.89277600        2.20524100       -0.58940400
 C          -0.70898100       -0.11689900       -0.08798100
 S          -1.66953285        0.31351620        1.27268647
 C          -1.49473006       -0.67742334       -1.07338153
 C          -3.10293674       -0.23187753        0.52368579
 C          -2.85303653       -0.74387325       -0.72518563
 H          -3.62300088       -1.14041833       -1.36085015
 H           4.15569300       -0.53353100        0.17259300
 H           3.49202900        1.93475000       -0.41867900
 H          -4.04293323       -0.15034598        1.03203036
 H          -1.09120044       -1.00181617       -2.01598718
$end

$rem
         jobtype = opt
        exchange = hf
           basis = cc-pvtz
  max_scf_cycles = 100
      mem_static = 6200
       mem_total = 62000
          method = mp2
$end

$opt
CONSTRAINT
tors 4 5 7 9 100.0
ENDCONSTRAINT
$end

--------------------------------------------------------------

   16   -1101.5959313581      8.74E-09 Convergence criterion met
 Total energy in the final basis set = -1101.5959313581
        MP2         total energy =     -1103.4108843373 au
   11   -1101.5966538591      4.84E-09 Convergence criterion met
 Total energy in the final basis set = -1101.5966538591
        MP2         total energy =     -1103.4111040404 au
   10   -1101.5966941792      8.25E-09 Convergence criterion met
 Total energy in the final basis set = -1101.5966941792
        MP2         total energy =     -1103.4111375315 au
   10   -1101.5967101150      9.96E-09 Convergence criterion met
 Total energy in the final basis set = -1101.5967101150
        MP2         total energy =     -1103.4111596333 au
   10   -1101.5966551698      8.04E-09 Convergence criterion met
 Total energy in the final basis set = -1101.5966551698
        MP2         total energy =     -1103.4111693518 au
   10   -1101.5966233968      4.24E-09 Convergence criterion met
 Total energy in the final basis set = -1101.5966233968
        MP2         total energy =     -1103.4111733516 au
    9   -1101.5966207402      5.05E-09 Convergence criterion met
 Total energy in the final basis set = -1101.5966207402
        MP2         total energy =     -1103.4111743969 au

             Standard Nuclear Orientation (Angstroms)
    I     Atom           X                Y                Z
 ----------------------------------------------------------------
    1      S       1.7358413275    -0.9681029526     0.7093384970
    2      C       3.1494931478    -0.1847172611     0.1693738687
    3      C       2.8539181773     0.8575712177    -0.6753478869
    4      C       1.4730693155     1.0087446907    -0.8812209055
    5      C       0.7187824219     0.0867334855    -0.1889562474
    6      H       1.0255791905     1.7559615468    -1.5114350439
    7      C      -0.7187824219    -0.0867334855    -0.1889562474
    8      S      -1.7358413275     0.9681029526     0.7093384970
    9      C      -1.4730693155    -1.0087446907    -0.8812209055
   10      C      -3.1494931478     0.1847172611     0.1693738687
   11      C      -2.8539181773    -0.8575712177    -0.6753478869
   12      H      -3.6063860190    -1.4773207221    -1.1268458634
   13      H       4.1147992484    -0.5211283430     0.4919001597
   14      H       3.6063860190     1.4773207221    -1.1268458634
   15      H      -4.1147992484     0.5211283430     0.4919001597
   16      H      -1.0255791905    -1.7559615468    -1.5114350439
 ----------------------------------------------------------------

    8   -1101.5966282964      3.51E-09 Convergence criterion met
 Total energy in the final basis set = -1101.5966282964
        MP2         total energy =     -1103.4111746328 au
 Final energy is   -1103.41117463281
 **  OPTIMIZATION CONVERGED  **

             Orbital Energies (a.u.) and Symmetries
 --------------------------------------------------------------

 Alpha MOs, Restricted
 -- Occupied --
-91.984 -91.984 -11.272 -11.271 -11.261 -11.261 -11.238 -11.238
  1 B     1 A     2 A     2 B     3 B     3 A     4 A     4 B
-11.236 -11.236  -8.985  -8.985  -6.666  -6.666  -6.666  -6.666
  5 B     5 A     6 B     6 A     7 B     7 A     8 A     8 B
 -6.665  -6.665  -1.194  -1.166  -1.032  -0.993  -0.989  -0.948
  9 B     9 A    10 A    10 B    11 A    11 B    12 A    12 B
 -0.806  -0.767  -0.758  -0.718  -0.703  -0.645  -0.570  -0.568
 13 A    13 B    14 A    14 B    15 A    15 B    16 A    16 B
 -0.563  -0.555  -0.539  -0.513  -0.511  -0.477  -0.474  -0.354
 17 A    17 B    18 A    18 B    19 A    19 B    20 A    21 A
 -0.344  -0.334  -0.312
 20 B    22 A    21 B

 Beta MOs, Restricted
 -- Occupied --
-91.984 -91.984 -11.272 -11.271 -11.261 -11.261 -11.238 -11.238
  1 B     1 A     2 A     2 B     3 B     3 A     4 A     4 B
-11.236 -11.236  -8.985  -8.985  -6.666  -6.666  -6.666  -6.666
  5 B     5 A     6 B     6 A     7 B     7 A     8 A     8 B
 -6.665  -6.665  -1.194  -1.166  -1.032  -0.993  -0.989  -0.948
  9 B     9 A    10 A    10 B    11 A    11 B    12 A    12 B
 -0.806  -0.767  -0.758  -0.718  -0.703  -0.645  -0.570  -0.568
 13 A    13 B    14 A    14 B    15 A    15 B    16 A    16 B
 -0.563  -0.555  -0.539  -0.513  -0.511  -0.477  -0.474  -0.354
 17 A    17 B    18 A    18 B    19 A    19 B    20 A    21 A
 -0.344  -0.334  -0.312
 20 B    22 A    21 B

          Ground-State Mulliken Net Atomic Charges

     Atom                 Charge (a.u.)
  ----------------------------------------
      1 S                     0.130790
      2 C                    -0.239787
      3 C                    -0.191634
      4 C                    -0.194158
      5 C                    -0.040847
      6 H                     0.176821
      7 C                    -0.040847
      8 S                     0.130790
      9 C                    -0.194158
     10 C                    -0.239787
     11 C                    -0.191634
     12 H                     0.174563
     13 H                     0.184251
     14 H                     0.174563
     15 H                     0.184251
     16 H                     0.176821
  ----------------------------------------
  Sum of atomic charges =    -0.000000

                    Cartesian Multipole Moments
 -----------------------------------------------------------------
    Charge (ESU x 10^10)
                -0.0000
    Dipole Moment (Debye)
         X       0.0000      Y      -0.0000      Z      -0.5097
       Tot       0.5097
    Quadrupole Moments (Debye-Ang)
        XX     -61.3585     XY       0.7479     YY     -71.7399
        XZ       0.0000     YZ      -0.0000     ZZ     -73.8022

 Total job time:  11854.45s(wall), 61473.37s(cpu)
        *  Thank you very much for using Q-Chem.  Have a nice day.  *
