 Q-Chem 4.4, Q-Chem, Inc., Pleasanton, CA (2016)
 Q-Chem 4.4.1 for Intel X86 EM64T Linux

User input:
--------------------------------------------------------------
$molecule
 0  1
 S           1.80900300       -1.15938900        0.25896800
 C           3.16466000       -0.14246800        0.05606700
 C           2.78757500        1.14089100       -0.25226100
 C           1.39402000        1.28822000       -0.33563400
 C           0.70898100        0.11689900       -0.08798100
 H           0.89277600        2.20524100       -0.58940400
 C          -0.70898100       -0.11689900       -0.08798100
 S          -1.62965784        0.07167815        1.35289577
 C          -1.52361882       -0.50221585       -1.13225083
 C          -3.08497482       -0.34081480        0.56232315
 C          -2.87170456       -0.63065347       -0.76235754
 H          -3.66028401       -0.91429980       -1.43455520
 H           4.15569300       -0.53353100        0.17259300
 H           3.49202900        1.93475000       -0.41867900
 H          -4.01003368       -0.34987856        1.10346911
 H          -1.14767135       -0.65932565       -2.12751576
$end

$rem
         jobtype = opt
        exchange = hf
           basis = cc-pvtz
  max_scf_cycles = 100
      mem_static = 6200
       mem_total = 62000
          method = mp2
$end

$opt
CONSTRAINT
tors 4 5 7 9 90.0
ENDCONSTRAINT
$end

--------------------------------------------------------------

   16   -1101.5956451952      7.55E-09 Convergence criterion met
 Total energy in the final basis set = -1101.5956451952
        MP2         total energy =     -1103.4106335260 au
   11   -1101.5963898841      6.10E-09 Convergence criterion met
 Total energy in the final basis set = -1101.5963898841
        MP2         total energy =     -1103.4108163260 au
   10   -1101.5964074012      4.93E-09 Convergence criterion met
 Total energy in the final basis set = -1101.5964074012
        MP2         total energy =     -1103.4108384696 au
    9   -1101.5964209127      9.51E-09 Convergence criterion met
 Total energy in the final basis set = -1101.5964209127
        MP2         total energy =     -1103.4108449190 au
    8   -1101.5963956359      9.99E-09 Convergence criterion met
 Total energy in the final basis set = -1101.5963956359
        MP2         total energy =     -1103.4108466881 au

             Standard Nuclear Orientation (Angstroms)
    I     Atom           X                Y                Z
 ----------------------------------------------------------------
    1      S       1.7079325892    -0.8844214048     0.7983905335
    2      C       3.1397501006    -0.1683398994     0.2151041634
    3      C       2.8728092037     0.7787978107    -0.7434662448
    4      C       1.4981751007     0.9155538640    -0.9965498654
    5      C       0.7208704700     0.0717194957    -0.2338153442
    6      H       1.0706023274     1.6009750489    -1.7058232853
    7      C      -0.7208704700    -0.0717194957    -0.2338153442
    8      S      -1.7079325892     0.8844214048     0.7983905335
    9      C      -1.4981751007    -0.9155538640    -0.9965498654
   10      C      -3.1397501006     0.1683398994     0.2151041634
   11      C      -2.8728092037    -0.7787978107    -0.7434662448
   12      H      -3.6405565301    -1.3453259132    -1.2371323450
   13      H       4.0944718539    -0.4723879414     0.5960083907
   14      H       3.6405565301     1.3453259132    -1.2371323450
   15      H      -4.0944718539     0.4723879414     0.5960083907
   16      H      -1.0706023274    -1.6009750489    -1.7058232853
 ----------------------------------------------------------------

    9   -1101.5963825649      4.97E-09 Convergence criterion met
 Total energy in the final basis set = -1101.5963825649
        MP2         total energy =     -1103.4108475670 au
 Final energy is   -1103.41084756700
 **  OPTIMIZATION CONVERGED  **

             Orbital Energies (a.u.) and Symmetries
 --------------------------------------------------------------

 Alpha MOs, Restricted
 -- Occupied --
-91.984 -91.984 -11.271 -11.270 -11.261 -11.261 -11.238 -11.238
  1 B     1 A     2 A     2 B     3 B     3 A     4 A     4 B
-11.236 -11.236  -8.985  -8.985  -6.666  -6.666  -6.666  -6.666
  5 B     5 A     6 B     6 A     7 A     7 B     8 A     8 B
 -6.665  -6.665  -1.194  -1.166  -1.032  -0.991  -0.991  -0.948
  9 B     9 A    10 A    10 B    11 A    11 B    12 A    12 B
 -0.806  -0.764  -0.761  -0.718  -0.703  -0.645  -0.570  -0.568
 13 A    13 B    14 A    14 B    15 A    15 B    16 A    16 B
 -0.565  -0.555  -0.537  -0.513  -0.511  -0.476  -0.475  -0.354
 17 A    17 B    18 A    18 B    19 A    19 B    20 A    21 A
 -0.343  -0.323  -0.322
 20 B    22 A    21 B

 Beta MOs, Restricted
 -- Occupied --
-91.984 -91.984 -11.271 -11.270 -11.261 -11.261 -11.238 -11.238
  1 B     1 A     2 A     2 B     3 B     3 A     4 A     4 B
-11.236 -11.236  -8.985  -8.985  -6.666  -6.666  -6.666  -6.666
  5 B     5 A     6 B     6 A     7 A     7 B     8 A     8 B
 -6.665  -6.665  -1.194  -1.166  -1.032  -0.991  -0.991  -0.948
  9 B     9 A    10 A    10 B    11 A    11 B    12 A    12 B
 -0.806  -0.764  -0.761  -0.718  -0.703  -0.645  -0.570  -0.568
 13 A    13 B    14 A    14 B    15 A    15 B    16 A    16 B
 -0.565  -0.555  -0.537  -0.513  -0.511  -0.476  -0.475  -0.354
 17 A    17 B    18 A    18 B    19 A    19 B    20 A    21 A
 -0.343  -0.323  -0.322
 20 B    22 A    21 B

          Ground-State Mulliken Net Atomic Charges

     Atom                 Charge (a.u.)
  ----------------------------------------
      1 S                     0.131423
      2 C                    -0.239766
      3 C                    -0.191220
      4 C                    -0.192072
      5 C                    -0.043728
      6 H                     0.176364
      7 C                    -0.043728
      8 S                     0.131423
      9 C                    -0.192072
     10 C                    -0.239766
     11 C                    -0.191220
     12 H                     0.174724
     13 H                     0.184275
     14 H                     0.174724
     15 H                     0.184275
     16 H                     0.176364
  ----------------------------------------
  Sum of atomic charges =    -0.000000

                    Cartesian Multipole Moments
 -----------------------------------------------------------------
    Charge (ESU x 10^10)
                -0.0000
    Dipole Moment (Debye)
         X      -0.0000      Y      -0.0000      Z      -0.5205
       Tot       0.5205
    Quadrupole Moments (Debye-Ang)
        XX     -61.3751     XY       0.8688     YY     -72.7525
        XZ       0.0000     YZ      -0.0000     ZZ     -72.7040

 Total job time:  8817.94s(wall), 45469.35s(cpu)
        *  Thank you very much for using Q-Chem.  Have a nice day.  *
