 Q-Chem 4.4, Q-Chem, Inc., Pleasanton, CA (2016)
 Q-Chem 4.4.1 for Intel X86 EM64T Linux

User input:
--------------------------------------------------------------
$molecule
 0  1
 S           1.80900300       -1.15938900        0.25896800
 C           3.16466000       -0.14246800        0.05606700
 C           2.78757500        1.14089100       -0.25226100
 C           1.39402000        1.28822000       -0.33563400
 C           0.70898100        0.11689900       -0.08798100
 H           0.89277600        2.20524100       -0.58940400
 C          -0.70898100       -0.11689900       -0.08798100
 S          -1.39933291       -1.32522002        0.92330908
 C          -1.69089158        0.51227709       -0.82458970
 C          -2.97988184       -0.97819348        0.38059303
 C          -2.97933133        0.02209241       -0.55945878
 H          -3.87494687        0.38760943       -1.02682654
 H           4.15569300       -0.53353100        0.17259300
 H           3.49202900        1.93475000       -0.41867900
 H          -3.81718401       -1.51949291        0.77375329
 H          -1.47275229        1.31225847       -1.50943810
$end

$rem
         jobtype = opt
        exchange = hf
           basis = cc-pvtz
  max_scf_cycles = 100
      mem_static = 6200
       mem_total = 62000
          method = mp2
$end

$opt
CONSTRAINT
tors 4 5 7 9 30.0
ENDCONSTRAINT
$end

--------------------------------------------------------------

   15   -1101.5971921532      8.90E-09 Convergence criterion met
 Total energy in the final basis set = -1101.5971921532
        MP2         total energy =     -1103.4129409957 au
   11   -1101.5980241483      6.88E-09 Convergence criterion met
 Total energy in the final basis set = -1101.5980241483
        MP2         total energy =     -1103.4134690705 au
   10   -1101.5981113847      7.19E-09 Convergence criterion met
 Total energy in the final basis set = -1101.5981113847
        MP2         total energy =     -1103.4135484083 au
   10   -1101.5981613941      4.83E-09 Convergence criterion met
 Total energy in the final basis set = -1101.5981613941
        MP2         total energy =     -1103.4135702567 au
    9   -1101.5981381250      5.93E-09 Convergence criterion met
 Total energy in the final basis set = -1101.5981381250
        MP2         total energy =     -1103.4135741291 au
    9   -1101.5981457080      6.72E-09 Convergence criterion met
 Total energy in the final basis set = -1101.5981457080
        MP2         total energy =     -1103.4135761103 au

             Standard Nuclear Orientation (Angstroms)
    I     Atom           X                Y                Z
 ----------------------------------------------------------------
    1      S       1.6355812247    -0.3545775630     1.1012664433
    2      C       3.1158486050    -0.0887207673     0.2952863964
    3      C       2.9158974220     0.2641689510    -1.0164598614
    4      C       1.5556434217     0.3320027392    -1.3561014287
    5      C       0.7188109510     0.0230693370    -0.3039200360
    6      H       1.1810754676     0.6199314293    -2.3218836634
    7      C      -0.7188109510    -0.0230693370    -0.3039200360
    8      S      -1.6355812247     0.3545775630     1.1012664433
    9      C      -1.5556434217    -0.3320027392    -1.3561014287
   10      C      -3.1158486050     0.0887207673     0.2952863964
   11      C      -2.9158974220    -0.2641689510    -1.0164598614
   12      H      -3.7213081410    -0.4750572993    -1.6954900142
   13      H       4.0442600441    -0.2037477756     0.8181539900
   14      H       3.7213081410     0.4750572993    -1.6954900142
   15      H      -4.0442600441     0.2037477756     0.8181539900
   16      H      -1.1810754676    -0.6199314293    -2.3218836634
 ----------------------------------------------------------------

    8   -1101.5981500867      6.21E-09 Convergence criterion met
 Total energy in the final basis set = -1101.5981500867
        MP2         total energy =     -1103.4135764496 au
 Final energy is   -1103.41357644962
 **  OPTIMIZATION CONVERGED  **

             Orbital Energies (a.u.) and Symmetries
 --------------------------------------------------------------

 Alpha MOs, Restricted
 -- Occupied --
-91.985 -91.985 -11.275 -11.274 -11.261 -11.261 -11.238 -11.238
  1 A     1 B     2 A     2 B     3 B     3 A     4 B     4 A
-11.237 -11.237  -8.986  -8.986  -6.667  -6.667  -6.667  -6.667
  5 B     5 A     6 B     6 A     7 B     7 A     8 A     8 B
 -6.666  -6.666  -1.197  -1.166  -1.035  -0.999  -0.985  -0.948
  9 A     9 B    10 A    10 B    11 A    12 A    11 B    12 B
 -0.809  -0.777  -0.749  -0.717  -0.707  -0.645  -0.574  -0.571
 13 A    14 A    13 B    14 B    15 A    15 B    16 A    17 A
 -0.562  -0.553  -0.541  -0.512  -0.512  -0.486  -0.467  -0.370
 16 B    17 B    18 A    19 A    18 B    20 A    19 B    20 B
 -0.352  -0.349  -0.283
 21 B    21 A    22 A

 Beta MOs, Restricted
 -- Occupied --
-91.985 -91.985 -11.275 -11.274 -11.261 -11.261 -11.238 -11.238
  1 A     1 B     2 A     2 B     3 B     3 A     4 B     4 A
-11.237 -11.237  -8.986  -8.986  -6.667  -6.667  -6.667  -6.667
  5 B     5 A     6 B     6 A     7 B     7 A     8 A     8 B
 -6.666  -6.666  -1.197  -1.166  -1.035  -0.999  -0.985  -0.948
  9 A     9 B    10 A    10 B    11 A    12 A    11 B    12 B
 -0.809  -0.777  -0.749  -0.717  -0.707  -0.645  -0.574  -0.571
 13 A    14 A    13 B    14 B    15 A    15 B    16 A    17 A
 -0.562  -0.553  -0.541  -0.512  -0.512  -0.486  -0.467  -0.370
 16 B    17 B    18 A    19 A    18 B    20 A    19 B    20 B
 -0.352  -0.349  -0.283
 21 B    21 A    22 A

          Ground-State Mulliken Net Atomic Charges

     Atom                 Charge (a.u.)
  ----------------------------------------
      1 S                     0.110678
      2 C                    -0.237985
      3 C                    -0.198278
      4 C                    -0.193675
      5 C                    -0.009933
      6 H                     0.169938
      7 C                    -0.009933
      8 S                     0.110678
      9 C                    -0.193675
     10 C                    -0.237985
     11 C                    -0.198278
     12 H                     0.174042
     13 H                     0.185214
     14 H                     0.174042
     15 H                     0.185214
     16 H                     0.169938
  ----------------------------------------
  Sum of atomic charges =     0.000000

                    Cartesian Multipole Moments
 -----------------------------------------------------------------
    Charge (ESU x 10^10)
                -0.0000
    Dipole Moment (Debye)
         X       0.0000      Y      -0.0000      Z      -0.7000
       Tot       0.7000
    Quadrupole Moments (Debye-Ang)
        XX     -61.0826     XY       0.4102     YY     -77.2936
        XZ       0.0000     YZ      -0.0000     ZZ     -68.2426

 Total job time:  10541.94s(wall), 54404.49s(cpu)
        *  Thank you very much for using Q-Chem.  Have a nice day.  *
