 Q-Chem 4.4, Q-Chem, Inc., Pleasanton, CA (2016)
 Q-Chem 4.4.1 for Intel X86 EM64T Linux

User input:
--------------------------------------------------------------
$molecule
 0  1
 S           1.80900300       -1.15938900        0.25896800
 C           3.16466000       -0.14246800        0.05606700
 C           2.78757500        1.14089100       -0.25226100
 C           1.39402000        1.28822000       -0.33563400
 C           0.70898100        0.11689900       -0.08798100
 H           0.89277600        2.20524100       -0.58940400
 C          -0.70898100       -0.11689900       -0.08798100
 S          -1.81398182        1.18958507        0.08923531
 C          -1.39048561       -1.30965571       -0.21242462
 C          -3.16666271        0.15461424       -0.02118582
 C          -2.78520779       -1.15524791       -0.17291870
 H          -3.48725021       -1.96373287       -0.26038871
 H           4.15569300       -0.53353100        0.17259300
 H           3.49202900        1.93475000       -0.41867900
 H          -4.15929711        0.55538958        0.03088201
 H          -0.88552739       -2.24920311       -0.34968409
$end

$rem
         jobtype = opt
        exchange = hf
           basis = cc-pvtz
  max_scf_cycles = 100
      mem_static = 6200
       mem_total = 62000
          method = mp2
$end

$opt
CONSTRAINT
tors 4 5 7 9 160.0
ENDCONSTRAINT
$end

--------------------------------------------------------------

   16   -1101.5989970765      3.41E-09 Convergence criterion met
 Total energy in the final basis set = -1101.5989970765
        MP2         total energy =     -1103.4140143137 au
    9   -1101.5991930486      6.57E-09 Convergence criterion met
 Total energy in the final basis set = -1101.5991930486
        MP2         total energy =     -1103.4141936209 au

             Standard Nuclear Orientation (Angstroms)
    I     Atom           X                Y                Z
 ----------------------------------------------------------------
    1      S       1.8109957320    -1.1782106537     0.2043322990
    2      C       3.1659716616    -0.1513016952     0.0509902513
    3      C       2.7877176271     1.1468638777    -0.1839484849
    4      C       1.3938125952     1.2986883941    -0.2497319160
    5      C       0.7088540185     0.1158188332    -0.0633648928
    6      H       0.8929716416     2.2299559433    -0.4464782176
    7      C      -0.7088540185    -0.1158188332    -0.0633648928
    8      S      -1.8109957320     1.1782106537     0.2043322990
    9      C      -1.3938125952    -1.2986883941    -0.2497319160
   10      C      -3.1659716616     0.1513016952     0.0509902513
   11      C      -2.7877176271    -1.1468638777    -0.1839484849
   12      H      -3.4912901649    -1.9489714611    -0.3093548616
   13      H       4.1571575843    -0.5488394158     0.1409889502
   14      H       3.4912901649     1.9489714611    -0.3093548616
   15      H      -4.1571575843     0.5488394158     0.1409889502
   16      H      -0.8929716416    -2.2299559433    -0.4464782176
 ----------------------------------------------------------------

    9   -1101.5991934220      6.10E-09 Convergence criterion met
 Total energy in the final basis set = -1101.5991934220
        MP2         total energy =     -1103.4141946086 au
 Final energy is   -1103.41419460857
 **  OPTIMIZATION CONVERGED  **

             Orbital Energies (a.u.) and Symmetries
 --------------------------------------------------------------

 Alpha MOs, Restricted
 -- Occupied --
-91.984 -91.984 -11.276 -11.275 -11.261 -11.261 -11.239 -11.239
  1 A     1 B     2 A     2 B     3 B     3 A     4 B     4 A
-11.237 -11.237  -8.986  -8.986  -6.667  -6.667  -6.667  -6.667
  5 A     5 B     6 A     6 B     7 B     7 A     8 A     8 B
 -6.666  -6.666  -1.197  -1.167  -1.036  -1.000  -0.985  -0.948
  9 B     9 A    10 A    10 B    11 A    11 B    12 A    12 B
 -0.810  -0.781  -0.745  -0.718  -0.708  -0.645  -0.572  -0.572
 13 A    13 B    14 A    14 B    15 A    15 B    16 A    16 B
 -0.558  -0.555  -0.549  -0.513  -0.513  -0.483  -0.466  -0.375
 17 A    17 B    18 A    18 B    19 A    19 B    20 A    21 A
 -0.354  -0.348  -0.279
 20 B    22 A    21 B

 Beta MOs, Restricted
 -- Occupied --
-91.984 -91.984 -11.276 -11.275 -11.261 -11.261 -11.239 -11.239
  1 A     1 B     2 A     2 B     3 B     3 A     4 B     4 A
-11.237 -11.237  -8.986  -8.986  -6.667  -6.667  -6.667  -6.667
  5 A     5 B     6 A     6 B     7 B     7 A     8 A     8 B
 -6.666  -6.666  -1.197  -1.167  -1.036  -1.000  -0.985  -0.948
  9 B     9 A    10 A    10 B    11 A    11 B    12 A    12 B
 -0.810  -0.781  -0.745  -0.718  -0.708  -0.645  -0.572  -0.572
 13 A    13 B    14 A    14 B    15 A    15 B    16 A    16 B
 -0.558  -0.555  -0.549  -0.513  -0.513  -0.483  -0.466  -0.375
 17 A    17 B    18 A    18 B    19 A    19 B    20 A    21 A
 -0.354  -0.348  -0.279
 20 B    22 A    21 B

          Ground-State Mulliken Net Atomic Charges

     Atom                 Charge (a.u.)
  ----------------------------------------
      1 S                     0.107188
      2 C                    -0.237923
      3 C                    -0.196081
      4 C                    -0.217259
      5 C                     0.020337
      6 H                     0.163659
      7 C                     0.020337
      8 S                     0.107188
      9 C                    -0.217259
     10 C                    -0.237923
     11 C                    -0.196081
     12 H                     0.174854
     13 H                     0.185225
     14 H                     0.174854
     15 H                     0.185225
     16 H                     0.163659
  ----------------------------------------
  Sum of atomic charges =    -0.000000

                    Cartesian Multipole Moments
 -----------------------------------------------------------------
    Charge (ESU x 10^10)
                 0.0000
    Dipole Moment (Debye)
         X      -0.0000      Y       0.0000      Z      -0.1604
       Tot       0.1604
    Quadrupole Moments (Debye-Ang)
        XX     -61.1607     XY       0.9664     YY     -68.1327
        XZ      -0.0000     YZ       0.0000     ZZ     -77.7649

 Total job time:  4506.88s(wall), 23209.74s(cpu)
        *  Thank you very much for using Q-Chem.  Have a nice day.  *
