 Q-Chem 4.4, Q-Chem, Inc., Pleasanton, CA (2016)
 Q-Chem 4.4.1 for Intel X86 EM64T Linux

User input:
--------------------------------------------------------------
$molecule
 0  1
 S           1.80900300       -1.15938900        0.25896800
 C           3.16466000       -0.14246800        0.05606700
 C           2.78757500        1.14089100       -0.25226100
 C           1.39402000        1.28822000       -0.33563400
 C           0.70898100        0.11689900       -0.08798100
 H           0.89277600        2.20524100       -0.58940400
 C          -0.70898100       -0.11689900       -0.08798100
 S          -1.64490809        0.16416943       -1.50374019
 C          -1.51385630       -0.56142454        0.94020970
 C          -3.08759745       -0.32490885       -0.73396561
 C          -2.86392251       -0.67785079        0.57357830
 H          -3.64383833       -1.01404128        1.23150670
 H           4.15569300       -0.53353100        0.17259300
 H           3.49202900        1.93475000       -0.41867900
 H          -4.01370304       -0.32762421       -1.27338756
 H          -1.12257755       -0.81151708        1.91022358
$end

$rem
         jobtype = opt
        exchange = hf
           basis = cc-pvtz
  max_scf_cycles = 100
      mem_static = 6200
       mem_total = 62000
          method = mp2
$end

$opt
CONSTRAINT
tors 4 5 7 9 -120.0
ENDCONSTRAINT
$end

--------------------------------------------------------------

   19   -1101.5972950579      6.18E-09 Convergence criterion met
 Total energy in the final basis set = -1101.5972950579
        MP2         total energy =     -1103.4120948239 au
   11   -1101.5980225086      7.58E-09 Convergence criterion met
 Total energy in the final basis set = -1101.5980225086
        MP2         total energy =     -1103.4125865181 au
   11   -1101.5980806681      4.13E-09 Convergence criterion met
 Total energy in the final basis set = -1101.5980806681
        MP2         total energy =     -1103.4126549042 au
   11   -1101.5980833885      4.45E-09 Convergence criterion met
 Total energy in the final basis set = -1101.5980833885
        MP2         total energy =     -1103.4126885771 au
   10   -1101.5980295419      7.88E-09 Convergence criterion met
 Total energy in the final basis set = -1101.5980295419
        MP2         total energy =     -1103.4126991688 au
   10   -1101.5980164608      4.57E-09 Convergence criterion met
 Total energy in the final basis set = -1101.5980164608
        MP2         total energy =     -1103.4127038647 au

             Standard Nuclear Orientation (Angstroms)
    I     Atom           X                Y                Z
 ----------------------------------------------------------------
    1      S       1.7732320857    -1.0757914140    -0.5508699686
    2      C       3.1585387065    -0.1817766809    -0.1162357432
    3      C       2.8212365243     0.9915795210     0.5131985267
    4      C       1.4328436640     1.1509034369     0.6488762885
    5      C       0.7139595592     0.1047368074     0.1115100243
    6      H       0.9560918043     1.9850440789     1.1313518653
    7      C      -0.7139595592    -0.1047368074     0.1115100243
    8      S      -1.7732320857     1.0757914140    -0.5508699686
    9      C      -1.4328436640    -1.1509034369     0.6488762885
   10      C      -3.1585387065     0.1817766809    -0.1162357432
   11      C      -2.8212365243    -0.9915795210     0.5131985267
   12      H      -3.5502489139    -1.6966983465     0.8675916814
   13      H       4.1380756557    -0.5541122674    -0.3415550222
   14      H       3.5502489139     1.6966983465     0.8675916814
   15      H      -4.1380756557     0.5541122674    -0.3415550222
   16      H      -0.9560918043    -1.9850440789     1.1313518653
 ----------------------------------------------------------------

    8   -1101.5980168240      6.09E-09 Convergence criterion met
 Total energy in the final basis set = -1101.5980168240
        MP2         total energy =     -1103.4127045252 au
 Final energy is   -1103.41270452525
 **  OPTIMIZATION CONVERGED  **

             Orbital Energies (a.u.) and Symmetries
 --------------------------------------------------------------

 Alpha MOs, Restricted
 -- Occupied --
-91.984 -91.984 -11.273 -11.272 -11.261 -11.261 -11.238 -11.238
  1 A     1 B     2 A     2 B     3 B     3 A     4 A     4 B
-11.237 -11.237  -8.986  -8.986  -6.667  -6.667  -6.666  -6.666
  5 B     5 A     6 B     6 A     7 B     7 A     8 A     8 B
 -6.666  -6.666  -1.195  -1.166  -1.034  -0.996  -0.987  -0.948
  9 B     9 A    10 A    10 B    11 A    11 B    12 A    12 B
 -0.807  -0.773  -0.752  -0.718  -0.704  -0.645  -0.571  -0.570
 13 A    13 B    14 A    14 B    15 A    15 B    16 A    16 B
 -0.561  -0.555  -0.542  -0.513  -0.511  -0.480  -0.471  -0.355
 17 A    17 B    18 A    18 B    19 A    19 B    20 A    21 A
 -0.350  -0.347  -0.296
 22 A    20 B    21 B

 Beta MOs, Restricted
 -- Occupied --
-91.984 -91.984 -11.273 -11.272 -11.261 -11.261 -11.238 -11.238
  1 A     1 B     2 A     2 B     3 B     3 A     4 A     4 B
-11.237 -11.237  -8.986  -8.986  -6.667  -6.667  -6.666  -6.666
  5 B     5 A     6 B     6 A     7 B     7 A     8 A     8 B
 -6.666  -6.666  -1.195  -1.166  -1.034  -0.996  -0.987  -0.948
  9 B     9 A    10 A    10 B    11 A    11 B    12 A    12 B
 -0.807  -0.773  -0.752  -0.718  -0.704  -0.645  -0.571  -0.570
 13 A    13 B    14 A    14 B    15 A    15 B    16 A    16 B
 -0.561  -0.555  -0.542  -0.513  -0.511  -0.480  -0.471  -0.355
 17 A    17 B    18 A    18 B    19 A    19 B    20 A    21 A
 -0.350  -0.347  -0.296
 22 A    20 B    21 B

          Ground-State Mulliken Net Atomic Charges

     Atom                 Charge (a.u.)
  ----------------------------------------
      1 S                     0.124228
      2 C                    -0.238200
      3 C                    -0.193079
      4 C                    -0.205038
      5 C                    -0.023083
      6 H                     0.176676
      7 C                    -0.023083
      8 S                     0.124228
      9 C                    -0.205038
     10 C                    -0.238200
     11 C                    -0.193079
     12 H                     0.174211
     13 H                     0.184285
     14 H                     0.174211
     15 H                     0.184285
     16 H                     0.176676
  ----------------------------------------
  Sum of atomic charges =    -0.000000

                    Cartesian Multipole Moments
 -----------------------------------------------------------------
    Charge (ESU x 10^10)
                -0.0000
    Dipole Moment (Debye)
         X      -0.0000      Y      -0.0000      Z       0.4404
       Tot       0.4404
    Quadrupole Moments (Debye-Ang)
        XX     -61.3016     XY       0.7162     YY     -70.1204
        XZ      -0.0000     YZ       0.0000     ZZ     -75.6057

 Total job time:  10521.73s(wall), 54438.22s(cpu)
        *  Thank you very much for using Q-Chem.  Have a nice day.  *
