 Q-Chem 4.4, Q-Chem, Inc., Pleasanton, CA (2016)
 Q-Chem 4.4.1 for Intel X86 EM64T Linux

User input:
--------------------------------------------------------------
$molecule
 0  1
 S           1.80900300       -1.15938900        0.25896800
 C           3.16466000       -0.14246800        0.05606700
 C           2.78757500        1.14089100       -0.25226100
 C           1.39402000        1.28822000       -0.33563400
 C           0.70898100        0.11689900       -0.08798100
 H           0.89277600        2.20524100       -0.58940400
 C          -0.70898100       -0.11689900       -0.08798100
 S          -1.36033027       -1.56176724       -0.75688531
 C          -1.71994864        0.68850533        0.39354950
 C          -2.95966993       -1.10077670       -0.37912428
 C          -2.99719116        0.13041049        0.22671384
 H          -3.91005351        0.60052774        0.54267998
 H           4.15569300       -0.53353100        0.17259300
 H           3.49202900        1.93475000       -0.41867900
 H          -3.77945742       -1.74830099       -0.61853139
 H          -1.52581186        1.63405954        0.86769126
$end

$rem
         jobtype = opt
        exchange = hf
           basis = cc-pvtz
  max_scf_cycles = 100
      mem_static = 6200
       mem_total = 62000
          method = mp2
$end

$opt
CONSTRAINT
tors 4 5 7 9 -40.0
ENDCONSTRAINT
$end

--------------------------------------------------------------

   16   -1101.5978404032      8.32E-09 Convergence criterion met
 Total energy in the final basis set = -1101.5978404032
        MP2         total energy =     -1103.4132668232 au
   10   -1101.5982530948      7.26E-09 Convergence criterion met
 Total energy in the final basis set = -1101.5982530948
        MP2         total energy =     -1103.4134272094 au
   10   -1101.5983303912      4.57E-09 Convergence criterion met
 Total energy in the final basis set = -1101.5983303912
        MP2         total energy =     -1103.4134472466 au
    9   -1101.5983298035      4.29E-09 Convergence criterion met
 Total energy in the final basis set = -1101.5983298035
        MP2         total energy =     -1103.4134483103 au

             Standard Nuclear Orientation (Angstroms)
    I     Atom           X                Y                Z
 ----------------------------------------------------------------
    1      S       1.6402119495     0.4372992816     1.0778585204
    2      C       3.1163032104     0.0896128636     0.2965093238
    3      C       2.9120995659    -0.3589334549    -0.9851894482
    4      C       1.5507616154    -0.4327931396    -1.3205085760
    5      C       0.7192378918    -0.0279386894    -0.2976961579
    6      H       1.1700109502    -0.7866086418    -2.2616746653
    7      C      -0.7192378918     0.0279386894    -0.2976961579
    8      S      -1.6402119495    -0.4372992816     1.0778585204
    9      C      -1.5507616154     0.4327931396    -1.3205085760
   10      C      -3.1163032104    -0.0896128636     0.2965093238
   11      C      -2.9120995659     0.3589334549    -0.9851894482
   12      H      -3.7147625949     0.6340474151    -1.6441891002
   13      H       4.0466275288     0.2297661243     0.8098767585
   14      H       3.7147625949    -0.6340474151    -1.6441891002
   15      H      -4.0466275288    -0.2297661243     0.8098767585
   16      H      -1.1700109502     0.7866086418    -2.2616746653
 ----------------------------------------------------------------

    8   -1101.5983072952      3.65E-09 Convergence criterion met
 Total energy in the final basis set = -1101.5983072952
        MP2         total energy =     -1103.4134485000 au
 Final energy is   -1103.41344849998
 **  OPTIMIZATION CONVERGED  **

             Orbital Energies (a.u.) and Symmetries
 --------------------------------------------------------------

 Alpha MOs, Restricted
 -- Occupied --
-91.985 -91.985 -11.274 -11.273 -11.261 -11.261 -11.238 -11.238
  1 B     1 A     2 A     2 B     3 B     3 A     4 B     4 A
-11.237 -11.237  -8.986  -8.986  -6.667  -6.667  -6.667  -6.667
  5 B     5 A     6 B     6 A     7 B     7 A     8 A     8 B
 -6.666  -6.666  -1.196  -1.166  -1.035  -0.998  -0.986  -0.948
  9 B     9 A    10 A    10 B    11 A    12 A    11 B    12 B
 -0.809  -0.775  -0.751  -0.717  -0.706  -0.645  -0.573  -0.570
 13 A    14 A    13 B    14 B    15 A    15 B    16 A    17 A
 -0.563  -0.553  -0.540  -0.512  -0.512  -0.484  -0.469  -0.364
 16 B    17 B    18 A    19 A    18 B    20 A    19 B    20 B
 -0.350  -0.350  -0.287
 21 A    21 B    22 A

 Beta MOs, Restricted
 -- Occupied --
-91.985 -91.985 -11.274 -11.273 -11.261 -11.261 -11.238 -11.238
  1 B     1 A     2 A     2 B     3 B     3 A     4 B     4 A
-11.237 -11.237  -8.986  -8.986  -6.667  -6.667  -6.667  -6.667
  5 B     5 A     6 B     6 A     7 B     7 A     8 A     8 B
 -6.666  -6.666  -1.196  -1.166  -1.035  -0.998  -0.986  -0.948
  9 B     9 A    10 A    10 B    11 A    12 A    11 B    12 B
 -0.809  -0.775  -0.751  -0.717  -0.706  -0.645  -0.573  -0.570
 13 A    14 A    13 B    14 B    15 A    15 B    16 A    17 A
 -0.563  -0.553  -0.540  -0.512  -0.512  -0.484  -0.469  -0.364
 16 B    17 B    18 A    19 A    18 B    20 A    19 B    20 B
 -0.350  -0.350  -0.287
 21 A    21 B    22 A

          Ground-State Mulliken Net Atomic Charges

     Atom                 Charge (a.u.)
  ----------------------------------------
      1 S                     0.114678
      2 C                    -0.237778
      3 C                    -0.195642
      4 C                    -0.196619
      5 C                    -0.016560
      6 H                     0.173027
      7 C                    -0.016560
      8 S                     0.114678
      9 C                    -0.196619
     10 C                    -0.237778
     11 C                    -0.195642
     12 H                     0.174105
     13 H                     0.184789
     14 H                     0.174105
     15 H                     0.184789
     16 H                     0.173027
  ----------------------------------------
  Sum of atomic charges =     0.000000

                    Cartesian Multipole Moments
 -----------------------------------------------------------------
    Charge (ESU x 10^10)
                -0.0000
    Dipole Moment (Debye)
         X       0.0000      Y      -0.0000      Z      -0.6715
       Tot       0.6715
    Quadrupole Moments (Debye-Ang)
        XX     -61.1473     XY      -0.6350     YY     -76.7929
        XZ       0.0000     YZ       0.0000     ZZ     -68.7230

 Total job time:  7306.28s(wall), 38433.24s(cpu)
        *  Thank you very much for using Q-Chem.  Have a nice day.  *
