 Q-Chem 4.4, Q-Chem, Inc., Pleasanton, CA (2016)
 Q-Chem 4.4.1 for Intel X86 EM64T Linux

User input:
--------------------------------------------------------------
$molecule
 0  1
 S           1.80900300       -1.15938900        0.25896800
 C           3.16466000       -0.14246800        0.05606700
 C           2.78757500        1.14089100       -0.25226100
 C           1.39402000        1.28822000       -0.33563400
 C           0.70898100        0.11689900       -0.08798100
 H           0.89277600        2.20524100       -0.58940400
 C          -0.70898100       -0.11689900       -0.08798100
 S          -1.68384184        0.40029881       -1.40763468
 C          -1.48557010       -0.73297760        0.87116438
 C          -3.10539749       -0.21695331       -0.69259455
 C          -2.84573480       -0.78815750        0.52829473
 H          -3.60757024       -1.23400365        1.14065938
 H           4.15569300       -0.53353100        0.17259300
 H           3.49202900        1.93475000       -0.41867900
 H          -4.04637612       -0.12946521       -1.19812402
 H          -1.06765546       -1.14461418        1.77253830
$end

$rem
         jobtype = opt
        exchange = hf
           basis = cc-pvtz
  max_scf_cycles = 100
      mem_static = 6200
       mem_total = 62000
          method = mp2
$end

$opt
CONSTRAINT
tors 4 5 7 9 -130.0
ENDCONSTRAINT
$end

--------------------------------------------------------------

   16   -1101.5982821363      8.76E-09 Convergence criterion met
 Total energy in the final basis set = -1101.5982821363
        MP2         total energy =     -1103.4130431938 au
   11   -1101.5987208857      7.02E-09 Convergence criterion met
 Total energy in the final basis set = -1101.5987208857
        MP2         total energy =     -1103.4133648734 au
   11   -1101.5987628694      3.46E-09 Convergence criterion met
 Total energy in the final basis set = -1101.5987628694
        MP2         total energy =     -1103.4134233266 au
   10   -1101.5987573574      9.23E-09 Convergence criterion met
 Total energy in the final basis set = -1101.5987573574
        MP2         total energy =     -1103.4134448219 au
   10   -1101.5987295449      4.59E-09 Convergence criterion met
 Total energy in the final basis set = -1101.5987295449
        MP2         total energy =     -1103.4134501700 au
   10   -1101.5987252331      3.35E-09 Convergence criterion met
 Total energy in the final basis set = -1101.5987252331
        MP2         total energy =     -1103.4134527178 au

             Standard Nuclear Orientation (Angstroms)
    I     Atom           X                Y                Z
 ----------------------------------------------------------------
    1      S       1.7841289786    -1.1103603533    -0.4719624652
    2      C       3.1602551958    -0.1732335920    -0.1013240733
    3      C       2.8102405506     1.0433597971     0.4311302020
    4      C       1.4200135093     1.2013088886     0.5477518708
    5      C       0.7121458101     0.1087078213     0.0939075703
    6      H       0.9349186049     2.0661209665     0.9634241400
    7      C      -0.7121458101    -0.1087078213     0.0939075703
    8      S      -1.7841289786     1.1103603533    -0.4719624652
    9      C      -1.4200135093    -1.2013088886     0.5477518708
   10      C      -3.1602551958     0.1732335920    -0.1013240733
   11      C      -2.8102405506    -1.0433597971     0.4311302020
   12      H      -3.5316822069    -1.7803392825     0.7321694256
   13      H       4.1436506895    -0.5549886841    -0.2911296320
   14      H       3.5316822069     1.7803392825     0.7321694256
   15      H      -4.1436506895     0.5549886841    -0.2911296320
   16      H      -0.9349186049    -2.0661209665     0.9634241400
 ----------------------------------------------------------------

    8   -1101.5987253483      4.88E-09 Convergence criterion met
 Total energy in the final basis set = -1101.5987253483
        MP2         total energy =     -1103.4134530451 au
 Final energy is   -1103.41345304513
 **  OPTIMIZATION CONVERGED  **

             Orbital Energies (a.u.) and Symmetries
 --------------------------------------------------------------

 Alpha MOs, Restricted
 -- Occupied --
-91.985 -91.985 -11.274 -11.273 -11.261 -11.261 -11.238 -11.238
  1 A     1 B     2 A     2 B     3 B     3 A     4 A     4 B
-11.237 -11.237  -8.986  -8.986  -6.667  -6.667  -6.667  -6.667
  5 B     5 A     6 B     6 A     7 B     7 A     8 A     8 B
 -6.666  -6.666  -1.196  -1.167  -1.035  -0.997  -0.987  -0.948
  9 B     9 A    10 A    10 B    11 A    11 B    12 A    12 B
 -0.808  -0.776  -0.750  -0.718  -0.705  -0.645  -0.571  -0.571
 13 A    13 B    14 A    14 B    15 A    15 B    16 A    16 B
 -0.560  -0.555  -0.544  -0.513  -0.511  -0.481  -0.470  -0.360
 17 A    17 B    18 A    18 B    19 A    19 B    20 A    21 A
 -0.351  -0.349  -0.291
 22 A    20 B    21 B

 Beta MOs, Restricted
 -- Occupied --
-91.985 -91.985 -11.274 -11.273 -11.261 -11.261 -11.238 -11.238
  1 A     1 B     2 A     2 B     3 B     3 A     4 A     4 B
-11.237 -11.237  -8.986  -8.986  -6.667  -6.667  -6.667  -6.667
  5 B     5 A     6 B     6 A     7 B     7 A     8 A     8 B
 -6.666  -6.666  -1.196  -1.167  -1.035  -0.997  -0.987  -0.948
  9 B     9 A    10 A    10 B    11 A    11 B    12 A    12 B
 -0.808  -0.776  -0.750  -0.718  -0.705  -0.645  -0.571  -0.571
 13 A    13 B    14 A    14 B    15 A    15 B    16 A    16 B
 -0.560  -0.555  -0.544  -0.513  -0.511  -0.481  -0.470  -0.360
 17 A    17 B    18 A    18 B    19 A    19 B    20 A    21 A
 -0.351  -0.349  -0.291
 22 A    20 B    21 B

          Ground-State Mulliken Net Atomic Charges

     Atom                 Charge (a.u.)
  ----------------------------------------
      1 S                     0.120078
      2 C                    -0.237701
      3 C                    -0.193767
      4 C                    -0.211313
      5 C                    -0.010557
      6 H                     0.174680
      7 C                    -0.010557
      8 S                     0.120078
      9 C                    -0.211313
     10 C                    -0.237701
     11 C                    -0.193767
     12 H                     0.174220
     13 H                     0.184360
     14 H                     0.174220
     15 H                     0.184360
     16 H                     0.174680
  ----------------------------------------
  Sum of atomic charges =     0.000000

                    Cartesian Multipole Moments
 -----------------------------------------------------------------
    Charge (ESU x 10^10)
                 0.0000
    Dipole Moment (Debye)
         X      -0.0000      Y       0.0000      Z       0.3811
       Tot       0.3811
    Quadrupole Moments (Debye-Ang)
        XX     -61.2630     XY       0.7712     YY     -69.4995
        XZ      -0.0000     YZ      -0.0000     ZZ     -76.2907

 Total job time:  10382.89s(wall), 53772.71s(cpu)
        *  Thank you very much for using Q-Chem.  Have a nice day.  *
