 Q-Chem 4.4, Q-Chem, Inc., Pleasanton, CA (2016)
 Q-Chem 4.4.1 for Intel X86 EM64T Linux

User input:
--------------------------------------------------------------
$molecule
 0  1
 S           1.80900300       -1.15938900        0.25896800
 C           3.16466000       -0.14246800        0.05606700
 C           2.78757500        1.14089100       -0.25226100
 C           1.39402000        1.28822000       -0.33563400
 C           0.70898100        0.11689900       -0.08798100
 H           0.89277600        2.20524100       -0.58940400
 C          -0.70898100       -0.11689900       -0.08798100
 S          -1.76755167        0.90799076        0.79991661
 C          -1.42384254       -1.10734921       -0.72874982
 C          -3.14667567        0.03339480        0.30372920
 C          -2.80708502       -1.02256461       -0.50491007
 H          -3.53114005       -1.69754534       -0.92241199
 H           4.15569300       -0.53353100        0.17259300
 H           3.49202900        1.93475000       -0.41867900
 H          -4.12293606        0.33486336        0.62728345
 H          -0.95204541       -1.84577784       -1.35221024
$end

$rem
         jobtype = opt
        exchange = hf
           basis = cc-pvtz
  max_scf_cycles = 100
      mem_static = 6200
       mem_total = 62000
          method = mp2
$end

$opt
CONSTRAINT
tors 4 5 7 9 130.0
ENDCONSTRAINT
$end

--------------------------------------------------------------

   16   -1101.5984794631      3.36E-09 Convergence criterion met
 Total energy in the final basis set = -1101.5984794631
        MP2         total energy =     -1103.4132623387 au
   10   -1101.5987298922      8.39E-09 Convergence criterion met
 Total energy in the final basis set = -1101.5987298922
        MP2         total energy =     -1103.4133867112 au
   11   -1101.5987927586      5.28E-09 Convergence criterion met
 Total energy in the final basis set = -1101.5987927586
        MP2         total energy =     -1103.4134352219 au
   10   -1101.5987788088      9.45E-09 Convergence criterion met
 Total energy in the final basis set = -1101.5987788088
        MP2         total energy =     -1103.4134487243 au
   10   -1101.5987268131      4.27E-09 Convergence criterion met
 Total energy in the final basis set = -1101.5987268131
        MP2         total energy =     -1103.4134527027 au

             Standard Nuclear Orientation (Angstroms)
    I     Atom           X                Y                Z
 ----------------------------------------------------------------
    1      S       1.7828976286    -1.1126978641     0.4593595970
    2      C       3.1601414470    -0.1773410276     0.0884787344
    3      C       2.8114990791     1.0398652205    -0.4434835326
    4      C       1.4214188910     1.1996418549    -0.5596347432
    5      C       0.7122885998     0.1078523548    -0.1057677410
    6      H       0.9372060570     2.0656406061    -0.9738541666
    7      C      -0.7122885998    -0.1078523548    -0.1057677410
    8      S      -1.7828976286     1.1126978641     0.4593595970
    9      C      -1.4214188910    -1.1996418549    -0.5596347432
   10      C      -3.1601414470     0.1773410276     0.0884787344
   11      C      -2.8114990791    -1.0398652205    -0.4434835326
   12      H      -3.5338668495    -1.7756197623    -0.7452907500
   13      H       4.1432002003    -0.5605732701     0.2770572774
   14      H       3.5338668495     1.7756197623    -0.7452907500
   15      H      -4.1432002003     0.5605732701     0.2770572774
   16      H      -0.9372060570    -2.0656406061    -0.9738541666
 ----------------------------------------------------------------

    7   -1101.5987262547      9.42E-09 Convergence criterion met
 Total energy in the final basis set = -1101.5987262547
        MP2         total energy =     -1103.4134531664 au
 Final energy is   -1103.41345316639
 **  OPTIMIZATION CONVERGED  **

             Orbital Energies (a.u.) and Symmetries
 --------------------------------------------------------------

 Alpha MOs, Restricted
 -- Occupied --
-91.985 -91.985 -11.274 -11.273 -11.261 -11.261 -11.238 -11.238
  1 A     1 B     2 A     2 B     3 B     3 A     4 A     4 B
-11.237 -11.237  -8.986  -8.986  -6.667  -6.667  -6.667  -6.667
  5 B     5 A     6 B     6 A     7 B     7 A     8 A     8 B
 -6.666  -6.666  -1.196  -1.167  -1.035  -0.997  -0.987  -0.948
  9 B     9 A    10 A    10 B    11 A    11 B    12 A    12 B
 -0.808  -0.776  -0.750  -0.718  -0.705  -0.645  -0.571  -0.571
 13 A    13 B    14 A    14 B    15 A    15 B    16 A    16 B
 -0.560  -0.555  -0.544  -0.513  -0.511  -0.481  -0.470  -0.360
 17 A    17 B    18 A    18 B    19 A    19 B    20 A    21 A
 -0.351  -0.349  -0.291
 22 A    20 B    21 B

 Beta MOs, Restricted
 -- Occupied --
-91.985 -91.985 -11.274 -11.273 -11.261 -11.261 -11.238 -11.238
  1 A     1 B     2 A     2 B     3 B     3 A     4 A     4 B
-11.237 -11.237  -8.986  -8.986  -6.667  -6.667  -6.667  -6.667
  5 B     5 A     6 B     6 A     7 B     7 A     8 A     8 B
 -6.666  -6.666  -1.196  -1.167  -1.035  -0.997  -0.987  -0.948
  9 B     9 A    10 A    10 B    11 A    11 B    12 A    12 B
 -0.808  -0.776  -0.750  -0.718  -0.705  -0.645  -0.571  -0.571
 13 A    13 B    14 A    14 B    15 A    15 B    16 A    16 B
 -0.560  -0.555  -0.544  -0.513  -0.511  -0.481  -0.470  -0.360
 17 A    17 B    18 A    18 B    19 A    19 B    20 A    21 A
 -0.351  -0.349  -0.291
 22 A    20 B    21 B

          Ground-State Mulliken Net Atomic Charges

     Atom                 Charge (a.u.)
  ----------------------------------------
      1 S                     0.120047
      2 C                    -0.237700
      3 C                    -0.193781
      4 C                    -0.211266
      5 C                    -0.010552
      6 H                     0.174662
      7 C                    -0.010552
      8 S                     0.120047
      9 C                    -0.211266
     10 C                    -0.237700
     11 C                    -0.193781
     12 H                     0.174218
     13 H                     0.184373
     14 H                     0.174218
     15 H                     0.184373
     16 H                     0.174662
  ----------------------------------------
  Sum of atomic charges =     0.000000

                    Cartesian Multipole Moments
 -----------------------------------------------------------------
    Charge (ESU x 10^10)
                 0.0000
    Dipole Moment (Debye)
         X       0.0000      Y       0.0000      Z      -0.3824
       Tot       0.3824
    Quadrupole Moments (Debye-Ang)
        XX     -61.2579     XY       0.7562     YY     -69.4989
        XZ      -0.0000     YZ      -0.0000     ZZ     -76.2866

 Total job time:  8883.37s(wall), 46491.67s(cpu)
        *  Thank you very much for using Q-Chem.  Have a nice day.  *
