 Q-Chem 4.4, Q-Chem, Inc., Pleasanton, CA (2016)
 Q-Chem 4.4.1 for Intel X86 EM64T Linux

User input:
--------------------------------------------------------------
$molecule
 0  1
 S           1.80900300       -1.15938900        0.25896800
 C           3.16466000       -0.14246800        0.05606700
 C           2.78757500        1.14089100       -0.25226100
 C           1.39402000        1.28822000       -0.33563400
 C           0.70898100        0.11689900       -0.08798100
 H           0.89277600        2.20524100       -0.58940400
 C          -0.70898100       -0.11689900       -0.08798100
 S          -1.33605843       -1.70897354       -0.26519731
 C          -1.73733163        0.79393144        0.03646262
 C          -2.94940210       -1.16305009       -0.15477618
 C          -3.00865503        0.19993773       -0.00304330
 H          -3.93309035        0.74024396        0.08442671
 H           4.15569300       -0.53353100        0.17259300
 H           3.49202900        1.93475000       -0.41867900
 H          -3.76082833       -1.86128458       -0.20684401
 H          -1.56073351        1.84585597        0.17372209
$end

$rem
         jobtype = opt
        exchange = hf
           basis = cc-pvtz
  max_scf_cycles = 100
      mem_static = 6200
       mem_total = 62000
          method = mp2
$end

$opt
CONSTRAINT
tors 4 5 7 9 -20.0
ENDCONSTRAINT
$end

--------------------------------------------------------------

   17   -1101.5969810576      4.50E-09 Convergence criterion met
 Total energy in the final basis set = -1101.5969810576
        MP2         total energy =     -1103.4130118763 au
   11   -1101.5976535482      3.90E-09 Convergence criterion met
 Total energy in the final basis set = -1101.5976535482
        MP2         total energy =     -1103.4133484542 au
   10   -1101.5976623698      9.44E-09 Convergence criterion met
 Total energy in the final basis set = -1101.5976623698
        MP2         total energy =     -1103.4133779379 au
   10   -1101.5976834450      3.16E-09 Convergence criterion met
 Total energy in the final basis set = -1101.5976834450
        MP2         total energy =     -1103.4133845335 au
    9   -1101.5976718200      8.12E-09 Convergence criterion met
 Total energy in the final basis set = -1101.5976718200
        MP2         total energy =     -1103.4133899370 au
    9   -1101.5976740158      6.73E-09 Convergence criterion met
 Total energy in the final basis set = -1101.5976740158
        MP2         total energy =     -1103.4133911389 au

             Standard Nuclear Orientation (Angstroms)
    I     Atom           X                Y                Z
 ----------------------------------------------------------------
    1      S       1.6338549861     0.2505825383     1.1260195674
    2      C       3.1162390212     0.0588420670     0.3027077551
    3      C       2.9182261303    -0.1910858826    -1.0325839579
    4      C       1.5587841040    -0.2391180721    -1.3775171240
    5      C       0.7186253198    -0.0229600491    -0.3044060708
    6      H       1.1894313579    -0.4480092788    -2.3653325289
    7      C      -0.7186253198     0.0229600491    -0.3044060708
    8      S      -1.6338549861    -0.2505825383     1.1260195674
    9      C      -1.5587841040     0.2391180721    -1.3775171240
   10      C      -3.1162390212    -0.0588420670     0.3027077551
   11      C      -2.9182261303     0.1910858826    -1.0325839579
   12      H      -3.7246676616     0.3422476764    -1.7261460237
   13      H       4.0432906562     0.1378950471     0.8344888846
   14      H       3.7246676616    -0.3422476764    -1.7261460237
   15      H      -4.0432906562    -0.1378950471     0.8344888846
   16      H      -1.1894313579     0.4480092788    -2.3653325289
 ----------------------------------------------------------------

    8   -1101.5976807505      8.45E-09 Convergence criterion met
 Total energy in the final basis set = -1101.5976807505
        MP2         total energy =     -1103.4133913900 au
 Final energy is   -1103.41339138996
 **  OPTIMIZATION CONVERGED  **

             Orbital Energies (a.u.) and Symmetries
 --------------------------------------------------------------

 Alpha MOs, Restricted
 -- Occupied --
-91.985 -91.985 -11.275 -11.274 -11.261 -11.261 -11.238 -11.238
  1 A     1 B     2 A     2 B     3 B     3 A     4 B     4 A
-11.237 -11.237  -8.986  -8.986  -6.667  -6.667  -6.667  -6.667
  5 B     5 A     6 B     6 A     7 B     7 A     8 A     8 B
 -6.666  -6.666  -1.197  -1.167  -1.036  -1.000  -0.985  -0.948
  9 A     9 B    10 A    10 B    11 A    12 A    11 B    12 B
 -0.810  -0.779  -0.747  -0.717  -0.708  -0.645  -0.575  -0.571
 13 A    14 A    13 B    14 B    15 A    15 B    16 A    17 A
 -0.561  -0.554  -0.542  -0.512  -0.511  -0.488  -0.465  -0.374
 16 B    17 B    18 A    19 A    18 B    20 A    19 B    20 B
 -0.354  -0.347  -0.279
 21 B    21 A    22 A

 Beta MOs, Restricted
 -- Occupied --
-91.985 -91.985 -11.275 -11.274 -11.261 -11.261 -11.238 -11.238
  1 A     1 B     2 A     2 B     3 B     3 A     4 B     4 A
-11.237 -11.237  -8.986  -8.986  -6.667  -6.667  -6.667  -6.667
  5 B     5 A     6 B     6 A     7 B     7 A     8 A     8 B
 -6.666  -6.666  -1.197  -1.167  -1.036  -1.000  -0.985  -0.948
  9 A     9 B    10 A    10 B    11 A    12 A    11 B    12 B
 -0.810  -0.779  -0.747  -0.717  -0.708  -0.645  -0.575  -0.571
 13 A    14 A    13 B    14 B    15 A    15 B    16 A    17 A
 -0.561  -0.554  -0.542  -0.512  -0.511  -0.488  -0.465  -0.374
 16 B    17 B    18 A    19 A    18 B    20 A    19 B    20 B
 -0.354  -0.347  -0.279
 21 B    21 A    22 A

          Ground-State Mulliken Net Atomic Charges

     Atom                 Charge (a.u.)
  ----------------------------------------
      1 S                     0.106699
      2 C                    -0.237695
      3 C                    -0.201559
      4 C                    -0.188571
      5 C                    -0.005433
      6 H                     0.166784
      7 C                    -0.005433
      8 S                     0.106699
      9 C                    -0.188571
     10 C                    -0.237695
     11 C                    -0.201559
     12 H                     0.173991
     13 H                     0.185783
     14 H                     0.173991
     15 H                     0.185783
     16 H                     0.166784
  ----------------------------------------
  Sum of atomic charges =    -0.000000

                    Cartesian Multipole Moments
 -----------------------------------------------------------------
    Charge (ESU x 10^10)
                -0.0000
    Dipole Moment (Debye)
         X       0.0000      Y      -0.0000      Z      -0.7226
       Tot       0.7226
    Quadrupole Moments (Debye-Ang)
        XX     -61.0358     XY      -0.3259     YY     -77.6986
        XZ      -0.0000     YZ       0.0000     ZZ     -67.8461

 Total job time:  10634.24s(wall), 55290.14s(cpu)
        *  Thank you very much for using Q-Chem.  Have a nice day.  *
