 Q-Chem 4.4, Q-Chem, Inc., Pleasanton, CA (2016)
 Q-Chem 4.4.1 for Intel X86 EM64T Linux

User input:
--------------------------------------------------------------
$molecule
 0  1
 S           1.80900300       -1.15938900        0.25896800
 C           3.16466000       -0.14246800        0.05606700
 C           2.78757500        1.14089100       -0.25226100
 C           1.39402000        1.28822000       -0.33563400
 C           0.70898100        0.11689900       -0.08798100
 H           0.89277600        2.20524100       -0.58940400
 C          -0.70898100       -0.11689900       -0.08798100
 S          -1.46619841       -0.91968728        1.23167268
 C          -1.64224714        0.21725333       -1.04712638
 C          -3.01066732       -0.79148254        0.51663255
 C          -2.94812801       -0.16715268       -0.70425673
 H          -3.81277032        0.01051474       -1.31662138
 H           4.15569300       -0.53353100        0.17259300
 H           3.49202900        1.93475000       -0.41867900
 H          -3.87374933       -1.17642980        1.02216202
 H          -1.37860544        0.74126705       -1.94850030
$end

$rem
         jobtype = opt
        exchange = hf
           basis = cc-pvtz
  max_scf_cycles = 100
      mem_static = 6200
       mem_total = 62000
          method = mp2
$end

$opt
CONSTRAINT
tors 4 5 7 9 50.0
ENDCONSTRAINT
$end

--------------------------------------------------------------

   16   -1101.5973375605      6.04E-09 Convergence criterion met
 Total energy in the final basis set = -1101.5973375605
        MP2         total energy =     -1103.4125622868 au
   11   -1101.5980127345      6.58E-09 Convergence criterion met
 Total energy in the final basis set = -1101.5980127345
        MP2         total energy =     -1103.4129155390 au
   10   -1101.5981070733      6.44E-09 Convergence criterion met
 Total energy in the final basis set = -1101.5981070733
        MP2         total energy =     -1103.4129760959 au
   10   -1101.5981235833      4.32E-09 Convergence criterion met
 Total energy in the final basis set = -1101.5981235833
        MP2         total energy =     -1103.4129876236 au
    9   -1101.5980907481      5.04E-09 Convergence criterion met
 Total energy in the final basis set = -1101.5980907481
        MP2         total energy =     -1103.4129894719 au

             Standard Nuclear Orientation (Angstroms)
    I     Atom           X                Y                Z
 ----------------------------------------------------------------
    1      S       1.6420344790    -0.5279655301     1.0385661144
    2      C       3.1163706240    -0.1112688927     0.2892383980
    3      C       2.9110831684     0.4325158308    -0.9550275897
    4      C       1.5495576746     0.5206436839    -1.2868534181
    5      C       0.7201604241     0.0283317946    -0.3018228437
    6      H       1.1662298704     0.9406961531    -2.1992586976
    7      C      -0.7201604241    -0.0283317946    -0.3018228437
    8      S      -1.6420344790     0.5279655301     1.0385661144
    9      C      -1.5495576746    -0.5206436839    -1.2868534181
   10      C      -3.1163706240     0.1112688927     0.2892383980
   11      C      -2.9110831684    -0.4325158308    -0.9550275897
   12      H      -3.7128403379    -0.7636149734    -1.5889190873
   13      H       4.0473135491    -0.2839064169     0.7915516263
   14      H       3.7128403379     0.7636149734    -1.5889190873
   15      H      -4.0473135491     0.2839064169     0.7915516263
   16      H      -1.1662298704    -0.9406961531    -2.1992586976
 ----------------------------------------------------------------

    8   -1101.5980835736      9.67E-09 Convergence criterion met
 Total energy in the final basis set = -1101.5980835736
        MP2         total energy =     -1103.4129902660 au
 Final energy is   -1103.41299026601
 **  OPTIMIZATION CONVERGED  **

             Orbital Energies (a.u.) and Symmetries
 --------------------------------------------------------------

 Alpha MOs, Restricted
 -- Occupied --
-91.984 -91.984 -11.273 -11.273 -11.261 -11.261 -11.238 -11.238
  1 B     1 A     2 A     2 B     3 B     3 A     4 B     4 A
-11.237 -11.237  -8.986  -8.986  -6.667  -6.667  -6.666  -6.666
  5 B     5 A     6 B     6 A     7 B     7 A     8 A     8 B
 -6.666  -6.666  -1.196  -1.166  -1.034  -0.997  -0.987  -0.948
  9 B     9 A    10 A    10 B    11 A    12 A    11 B    12 B
 -0.808  -0.773  -0.753  -0.718  -0.705  -0.645  -0.572  -0.569
 13 A    14 A    13 B    14 B    15 A    15 B    16 A    17 A
 -0.564  -0.553  -0.539  -0.512  -0.512  -0.483  -0.470  -0.358
 16 B    17 B    18 A    19 A    18 B    20 A    19 B    20 B
 -0.352  -0.348  -0.291
 21 A    21 B    22 A

 Beta MOs, Restricted
 -- Occupied --
-91.984 -91.984 -11.273 -11.273 -11.261 -11.261 -11.238 -11.238
  1 B     1 A     2 A     2 B     3 B     3 A     4 B     4 A
-11.237 -11.237  -8.986  -8.986  -6.667  -6.667  -6.666  -6.666
  5 B     5 A     6 B     6 A     7 B     7 A     8 A     8 B
 -6.666  -6.666  -1.196  -1.166  -1.034  -0.997  -0.987  -0.948
  9 B     9 A    10 A    10 B    11 A    12 A    11 B    12 B
 -0.808  -0.773  -0.753  -0.718  -0.705  -0.645  -0.572  -0.569
 13 A    14 A    13 B    14 B    15 A    15 B    16 A    17 A
 -0.564  -0.553  -0.539  -0.512  -0.512  -0.483  -0.470  -0.358
 16 B    17 B    18 A    19 A    18 B    20 A    19 B    20 B
 -0.352  -0.348  -0.291
 21 A    21 B    22 A

          Ground-State Mulliken Net Atomic Charges

     Atom                 Charge (a.u.)
  ----------------------------------------
      1 S                     0.118901
      2 C                    -0.237566
      3 C                    -0.193461
      4 C                    -0.196967
      5 C                    -0.024810
      6 H                     0.175200
      7 C                    -0.024810
      8 S                     0.118901
      9 C                    -0.196967
     10 C                    -0.237566
     11 C                    -0.193461
     12 H                     0.174194
     13 H                     0.184509
     14 H                     0.174194
     15 H                     0.184509
     16 H                     0.175200
  ----------------------------------------
  Sum of atomic charges =     0.000000

                    Cartesian Multipole Moments
 -----------------------------------------------------------------
    Charge (ESU x 10^10)
                 0.0000
    Dipole Moment (Debye)
         X       0.0000      Y      -0.0000      Z      -0.6376
       Tot       0.6376
    Quadrupole Moments (Debye-Ang)
        XX     -61.2084     XY       0.7282     YY     -76.2075
        XZ       0.0000     YZ      -0.0000     ZZ     -69.2733

 Total job time:  8563.92s(wall), 45743.27s(cpu)
        *  Thank you very much for using Q-Chem.  Have a nice day.  *
