 Q-Chem 4.4, Q-Chem, Inc., Pleasanton, CA (2016)
 Q-Chem 4.4.1 for Intel X86 EM64T Linux

User input:
--------------------------------------------------------------
$molecule
 0  1
 S           1.80900300       -1.15938900        0.25896800
 C           3.16466000       -0.14246800        0.05606700
 C           2.78757500        1.14089100       -0.25226100
 C           1.39402000        1.28822000       -0.33563400
 C           0.70898100        0.11689900       -0.08798100
 H           0.89277600        2.20524100       -0.58940400
 C          -0.70898100       -0.11689900       -0.08798100
 S          -1.50513216       -0.68355790        1.32777819
 C          -1.61396094        0.04570027       -1.11617170
 C          -3.02846737       -0.68352700        0.55800361
 C          -2.92994030       -0.27745939       -0.74954030
 H          -3.77650224       -0.20944763       -1.40746870
 H           4.15569300       -0.53353100        0.17259300
 H           3.49202900        1.93475000       -0.41867900
 H          -3.90642240       -0.97827079        1.09742556
 H          -1.32368335        0.40816995       -2.08618558
$end

$rem
         jobtype = opt
        exchange = hf
           basis = cc-pvtz
  max_scf_cycles = 100
      mem_static = 6200
       mem_total = 62000
          method = mp2
$end

$opt
CONSTRAINT
tors 4 5 7 9 60.0
ENDCONSTRAINT
$end

--------------------------------------------------------------

   17   -1101.5967822224      4.14E-09 Convergence criterion met
 Total energy in the final basis set = -1101.5967822224
        MP2         total energy =     -1103.4118684294 au
   11   -1101.5975464133      6.63E-09 Convergence criterion met
 Total energy in the final basis set = -1101.5975464133
        MP2         total energy =     -1103.4122241313 au
   10   -1101.5976347470      8.04E-09 Convergence criterion met
 Total energy in the final basis set = -1101.5976347470
        MP2         total energy =     -1103.4122811085 au
   10   -1101.5976496891      5.63E-09 Convergence criterion met
 Total energy in the final basis set = -1101.5976496891
        MP2         total energy =     -1103.4122951965 au
    9   -1101.5976055647      8.56E-09 Convergence criterion met
 Total energy in the final basis set = -1101.5976055647
        MP2         total energy =     -1103.4122989135 au
    9   -1101.5975901961      9.88E-09 Convergence criterion met
 Total energy in the final basis set = -1101.5975901961
        MP2         total energy =     -1103.4123007542 au

             Standard Nuclear Orientation (Angstroms)
    I     Atom           X                Y                Z
 ----------------------------------------------------------------
    1      S       1.6483502491    -0.6124992153     0.9958582205
    2      C       3.1179274731    -0.1207194426     0.2848972696
    3      C       2.9074295343     0.5188739784    -0.9121812778
    4      C       1.5450896219     0.6160331161    -1.2386423674
    5      C       0.7211178115     0.0341555407    -0.2994508287
    6      H       1.1572806092     1.1000239808    -2.1167880979
    7      C      -0.7211178115    -0.0341555407    -0.2994508287
    8      S      -1.6483502491     0.6124992153     0.9958582205
    9      C      -1.5450896219    -0.6160331161    -1.2386423674
   10      C      -3.1179274731     0.1207194426     0.2848972696
   11      C      -2.9074295343    -0.5188739784    -0.9121812778
   12      H      -3.7058024228    -0.9082147465    -1.5165451017
   13      H       4.0508298643    -0.3231992740     0.7722982763
   14      H       3.7058024228     0.9082147465    -1.5165451017
   15      H      -4.0508298643     0.3231992740     0.7722982763
   16      H      -1.1572806092    -1.1000239808    -2.1167880979
 ----------------------------------------------------------------

    8   -1101.5975905539      9.14E-09 Convergence criterion met
 Total energy in the final basis set = -1101.5975905539
        MP2         total energy =     -1103.4123011655 au
 Final energy is   -1103.41230116549
 **  OPTIMIZATION CONVERGED  **

             Orbital Energies (a.u.) and Symmetries
 --------------------------------------------------------------

 Alpha MOs, Restricted
 -- Occupied --
-91.984 -91.984 -11.273 -11.272 -11.261 -11.261 -11.238 -11.238
  1 B     1 A     2 A     2 B     3 B     3 A     4 B     4 A
-11.236 -11.236  -8.986  -8.986  -6.667  -6.667  -6.666  -6.666
  5 B     5 A     6 B     6 A     7 B     7 A     8 A     8 B
 -6.665  -6.665  -1.195  -1.166  -1.034  -0.996  -0.987  -0.948
  9 B     9 A    10 A    10 B    11 A    12 A    11 B    12 B
 -0.807  -0.771  -0.755  -0.718  -0.704  -0.645  -0.571  -0.568
 13 A    14 A    13 B    14 B    15 A    15 B    16 A    17 A
 -0.565  -0.553  -0.538  -0.512  -0.512  -0.481  -0.472  -0.353
 16 B    17 B    18 A    19 A    18 B    20 A    19 B    21 A
 -0.351  -0.346  -0.297
 20 B    21 B    22 A

 Beta MOs, Restricted
 -- Occupied --
-91.984 -91.984 -11.273 -11.272 -11.261 -11.261 -11.238 -11.238
  1 B     1 A     2 A     2 B     3 B     3 A     4 B     4 A
-11.236 -11.236  -8.986  -8.986  -6.667  -6.667  -6.666  -6.666
  5 B     5 A     6 B     6 A     7 B     7 A     8 A     8 B
 -6.665  -6.665  -1.195  -1.166  -1.034  -0.996  -0.987  -0.948
  9 B     9 A    10 A    10 B    11 A    12 A    11 B    12 B
 -0.807  -0.771  -0.755  -0.718  -0.704  -0.645  -0.571  -0.568
 13 A    14 A    13 B    14 B    15 A    15 B    16 A    17 A
 -0.565  -0.553  -0.538  -0.512  -0.512  -0.481  -0.472  -0.353
 16 B    17 B    18 A    19 A    18 B    20 A    19 B    21 A
 -0.351  -0.346  -0.297
 20 B    21 B    22 A

          Ground-State Mulliken Net Atomic Charges

     Atom                 Charge (a.u.)
  ----------------------------------------
      1 S                     0.123277
      2 C                    -0.237697
      3 C                    -0.191828
      4 C                    -0.195387
      5 C                    -0.033287
      6 H                     0.176237
      7 C                    -0.033287
      8 S                     0.123277
      9 C                    -0.195387
     10 C                    -0.237697
     11 C                    -0.191828
     12 H                     0.174348
     13 H                     0.184336
     14 H                     0.174348
     15 H                     0.184336
     16 H                     0.176237
  ----------------------------------------
  Sum of atomic charges =     0.000000

                    Cartesian Multipole Moments
 -----------------------------------------------------------------
    Charge (ESU x 10^10)
                -0.0000
    Dipole Moment (Debye)
         X      -0.0000      Y      -0.0000      Z      -0.6021
       Tot       0.6021
    Quadrupole Moments (Debye-Ang)
        XX     -61.2748     XY       0.8554     YY     -75.5168
        XZ       0.0000     YZ      -0.0000     ZZ     -69.9244

 Total job time:  10522.34s(wall), 53884.17s(cpu)
        *  Thank you very much for using Q-Chem.  Have a nice day.  *
