 Q-Chem 4.4, Q-Chem, Inc., Pleasanton, CA (2016)
 Q-Chem 4.4.1 for Intel X86 EM64T Linux

User input:
--------------------------------------------------------------
$molecule
 0  1
 S           1.80900300       -1.15938900        0.25896800
 C           3.16466000       -0.14246800        0.05606700
 C           2.78757500        1.14089100       -0.25226100
 C           1.39402000        1.28822000       -0.33563400
 C           0.70898100        0.11689900       -0.08798100
 H           0.89277600        2.20524100       -0.58940400
 C          -0.70898100       -0.11689900       -0.08798100
 S          -1.80943135        1.16198690       -0.42382760
 C          -1.39402000       -1.28822000        0.15967200
 C          -3.16382812        0.13742274       -0.25359041
 C          -2.78721944       -1.14304746        0.06708317
 H          -3.49110082       -1.94037934        0.21865947
 H           4.15569300       -0.53353100        0.17259300
 H           3.49202900        1.93475000       -0.41867900
 H          -4.15389559        0.52262988       -0.39514200
 H          -0.89132565       -2.21403726        0.37585033
$end

$rem
         jobtype = opt
        exchange = hf
           basis = cc-pvtz
  max_scf_cycles = 100
      mem_static = 6200
       mem_total = 62000
          method = mp2
$end

$opt
CONSTRAINT
tors 4 5 7 9 180.0
ENDCONSTRAINT
$end

--------------------------------------------------------------

   15   -1101.5985223472      9.08E-09 Convergence criterion met
 Total energy in the final basis set = -1101.5985223472
        MP2         total energy =     -1103.4136974025 au
   10   -1101.5988545402      6.45E-09 Convergence criterion met
 Total energy in the final basis set = -1101.5988545402
        MP2         total energy =     -1103.4139545438 au
    9   -1101.5988540697      5.42E-09 Convergence criterion met
 Total energy in the final basis set = -1101.5988540697
        MP2         total energy =     -1103.4139650541 au
    8   -1101.5988733664      6.85E-09 Convergence criterion met
 Total energy in the final basis set = -1101.5988733664
        MP2         total energy =     -1103.4139676248 au

             Standard Nuclear Orientation (Angstroms)
    I     Atom           X                Y                Z
 ----------------------------------------------------------------
    1      S       1.8212683763    -1.1946448139    -0.0057842415
    2      C       3.1694146211    -0.1469881969    -0.0052469469
    3      C       2.7820097113     1.1691921303    -0.0068900281
    4      C       1.3865237248     1.3198979900    -0.0087144408
    5      C       0.7082541376     0.1185151859    -0.0087144408
    6      H       0.8810347516     2.2693967861    -0.0100942069
    7      C      -0.7082541376    -0.1185151859    -0.0087144408
    8      S      -1.8212683763     1.1946448139    -0.0057842415
    9      C      -1.3865237248    -1.3198979900    -0.0087144408
   10      C      -3.1694146211     0.1469881969    -0.0052469469
   11      C      -2.7820097113    -1.1691921303    -0.0068900281
   12      H      -3.4795724344    -1.9861897062    -0.0058179128
   13      H       4.1630192759    -0.5485504847    -0.0034478337
   14      H       3.4795724344     1.9861897062    -0.0058179128
   15      H      -4.1630192759     0.5485504847    -0.0034478337
   16      H      -0.8810347516    -2.2693967861    -0.0100942069
 ----------------------------------------------------------------

    8   -1101.5988686839      5.17E-09 Convergence criterion met
 Total energy in the final basis set = -1101.5988686839
        MP2         total energy =     -1103.4139681073 au
 Final energy is   -1103.41396810730
 **  OPTIMIZATION CONVERGED  **

             Orbital Energies (a.u.) and Symmetries
 --------------------------------------------------------------

 Alpha MOs, Restricted
 -- Occupied --
-91.984 -91.984 -11.276 -11.275 -11.262 -11.262 -11.239 -11.239
  1 A     1 B     2 A     2 B     3 B     3 A     4 B     4 A
-11.237 -11.237  -8.986  -8.986  -6.667  -6.667  -6.666  -6.666
  5 A     5 B     6 A     6 B     7 B     7 A     8 A     8 B
 -6.666  -6.666  -1.197  -1.167  -1.037  -1.001  -0.984  -0.949
  9 B     9 A    10 A    10 B    11 A    11 B    12 A    12 B
 -0.811  -0.782  -0.743  -0.718  -0.709  -0.646  -0.573  -0.572
 13 A    13 B    14 A    14 B    15 A    15 B    16 A    16 B
 -0.556  -0.555  -0.552  -0.513  -0.513  -0.484  -0.464  -0.379
 17 A    17 B    18 A    19 A    18 B    19 B    20 A    21 A
 -0.356  -0.347  -0.277
 20 B    22 A    21 B

 Beta MOs, Restricted
 -- Occupied --
-91.984 -91.984 -11.276 -11.275 -11.262 -11.262 -11.239 -11.239
  1 A     1 B     2 A     2 B     3 B     3 A     4 B     4 A
-11.237 -11.237  -8.986  -8.986  -6.667  -6.667  -6.666  -6.666
  5 A     5 B     6 A     6 B     7 B     7 A     8 A     8 B
 -6.666  -6.666  -1.197  -1.167  -1.037  -1.001  -0.984  -0.949
  9 B     9 A    10 A    10 B    11 A    11 B    12 A    12 B
 -0.811  -0.782  -0.743  -0.718  -0.709  -0.646  -0.573  -0.572
 13 A    13 B    14 A    14 B    15 A    15 B    16 A    16 B
 -0.556  -0.555  -0.552  -0.513  -0.513  -0.484  -0.464  -0.379
 17 A    17 B    18 A    19 A    18 B    19 B    20 A    21 A
 -0.356  -0.347  -0.277
 20 B    22 A    21 B

          Ground-State Mulliken Net Atomic Charges

     Atom                 Charge (a.u.)
  ----------------------------------------
      1 S                     0.100613
      2 C                    -0.237790
      3 C                    -0.198913
      4 C                    -0.212796
      5 C                     0.027813
      6 H                     0.159784
      7 C                     0.027813
      8 S                     0.100613
      9 C                    -0.212796
     10 C                    -0.237790
     11 C                    -0.198913
     12 H                     0.175222
     13 H                     0.186067
     14 H                     0.175222
     15 H                     0.186067
     16 H                     0.159784
  ----------------------------------------
  Sum of atomic charges =     0.000000

                    Cartesian Multipole Moments
 -----------------------------------------------------------------
    Charge (ESU x 10^10)
                 0.0000
    Dipole Moment (Debye)
         X       0.0000      Y      -0.0000      Z       0.0041
       Tot       0.0041
    Quadrupole Moments (Debye-Ang)
        XX     -61.1435     XY       1.0156     YY     -67.7734
        XZ      -0.0000     YZ      -0.0000     ZZ     -78.1424

 Total job time:  7455.25s(wall), 38128.49s(cpu)
        *  Thank you very much for using Q-Chem.  Have a nice day.  *
