 Q-Chem 4.4, Q-Chem, Inc., Pleasanton, CA (2016)
 Q-Chem 4.4.1 for Intel X86 EM64T Linux

User input:
--------------------------------------------------------------
$molecule
 0  1
 S           1.80900300       -1.15938900        0.25896800
 C           3.16466000       -0.14246800        0.05606700
 C           2.78757500        1.14089100       -0.25226100
 C           1.39402000        1.28822000       -0.33563400
 C           0.70898100        0.11689900       -0.08798100
 H           0.89277600        2.20524100       -0.58940400
 C          -0.70898100       -0.11689900       -0.08798100
 S          -1.81535786        1.19793058       -0.16851971
 C          -1.38960474       -1.31499813       -0.02542596
 C          -3.16689935        0.15604943       -0.13815030
 C          -2.78450561       -1.15950654       -0.05237686
 H          -3.48576631       -1.97273257       -0.01982924
 H           4.15569300       -0.53353100        0.17259300
 H           3.49202900        1.93475000       -0.41867900
 H          -4.15962820        0.55739759       -0.18358240
 H          -0.88326317       -2.26293538        0.01464219
$end

$rem
         jobtype = opt
        exchange = hf
           basis = cc-pvtz
  max_scf_cycles = 100
      mem_static = 6200
       mem_total = 62000
          method = mp2
$end

$opt
CONSTRAINT
tors 4 5 7 9 170.0
ENDCONSTRAINT
$end

--------------------------------------------------------------

   15   -1101.5987434244      4.93E-09 Convergence criterion met
 Total energy in the final basis set = -1101.5987434244
        MP2         total energy =     -1103.4138751024 au
   10   -1101.5989689592      4.45E-09 Convergence criterion met
 Total energy in the final basis set = -1101.5989689592
        MP2         total energy =     -1103.4140456934 au
    9   -1101.5989664650      7.04E-09 Convergence criterion met
 Total energy in the final basis set = -1101.5989664650
        MP2         total energy =     -1103.4140491915 au

             Standard Nuclear Orientation (Angstroms)
    I     Atom           X                Y                Z
 ----------------------------------------------------------------
    1      S       1.8183174663    -1.1901961432     0.1031870430
    2      C       3.1684420280    -0.1480592620     0.0263266503
    3      C       2.7836282930     1.1633592197    -0.0954091688
    4      C       1.3886245969     1.3142898360    -0.1325566572
    5      C       0.7084126684     0.1176671484    -0.0390318255
    6      H       0.8845441122     2.2587501594    -0.2369351593
    7      C      -0.7084126684    -0.1176671484    -0.0390318255
    8      S      -1.8183174663     1.1901961432     0.1031870430
    9      C      -1.3886245969    -1.3142898360    -0.1325566572
   10      C      -3.1684420280     0.1480592620     0.0263266503
   11      C      -2.7836282930    -1.1633592197    -0.0954091688
   12      H      -3.4829121794    -1.9764965145    -0.1578600951
   13      H       4.1613466627    -0.5484591260     0.0749002865
   14      H       3.4829121794     1.9764965145    -0.1578600951
   15      H      -4.1613466627     0.5484591260     0.0749002865
   16      H      -0.8845441122    -2.2587501594    -0.2369351593
 ----------------------------------------------------------------

    8   -1101.5989793806      7.64E-09 Convergence criterion met
 Total energy in the final basis set = -1101.5989793806
        MP2         total energy =     -1103.4140498650 au
 Final energy is   -1103.41404986498
 **  OPTIMIZATION CONVERGED  **

             Orbital Energies (a.u.) and Symmetries
 --------------------------------------------------------------

 Alpha MOs, Restricted
 -- Occupied --
-91.984 -91.984 -11.276 -11.275 -11.262 -11.262 -11.239 -11.239
  1 A     1 B     2 A     2 B     3 B     3 A     4 B     4 A
-11.237 -11.237  -8.986  -8.986  -6.667  -6.667  -6.667  -6.667
  5 A     5 B     6 A     6 B     7 B     7 A     8 A     8 B
 -6.666  -6.666  -1.197  -1.167  -1.037  -1.001  -0.984  -0.949
  9 B     9 A    10 A    10 B    11 A    11 B    12 A    12 B
 -0.811  -0.782  -0.744  -0.718  -0.708  -0.645  -0.573  -0.572
 13 A    13 B    14 A    14 B    15 A    15 B    16 A    16 B
 -0.557  -0.555  -0.551  -0.513  -0.513  -0.484  -0.465  -0.378
 17 A    17 B    18 A    19 A    18 B    19 B    20 A    21 A
 -0.356  -0.347  -0.277
 20 B    22 A    21 B

 Beta MOs, Restricted
 -- Occupied --
-91.984 -91.984 -11.276 -11.275 -11.262 -11.262 -11.239 -11.239
  1 A     1 B     2 A     2 B     3 B     3 A     4 B     4 A
-11.237 -11.237  -8.986  -8.986  -6.667  -6.667  -6.667  -6.667
  5 A     5 B     6 A     6 B     7 B     7 A     8 A     8 B
 -6.666  -6.666  -1.197  -1.167  -1.037  -1.001  -0.984  -0.949
  9 B     9 A    10 A    10 B    11 A    11 B    12 A    12 B
 -0.811  -0.782  -0.744  -0.718  -0.708  -0.645  -0.573  -0.572
 13 A    13 B    14 A    14 B    15 A    15 B    16 A    16 B
 -0.557  -0.555  -0.551  -0.513  -0.513  -0.484  -0.465  -0.378
 17 A    17 B    18 A    19 A    18 B    19 B    20 A    21 A
 -0.356  -0.347  -0.277
 20 B    22 A    21 B

          Ground-State Mulliken Net Atomic Charges

     Atom                 Charge (a.u.)
  ----------------------------------------
      1 S                     0.102731
      2 C                    -0.237859
      3 C                    -0.197867
      4 C                    -0.214500
      5 C                     0.025778
      6 H                     0.160829
      7 C                     0.025778
      8 S                     0.102731
      9 C                    -0.214500
     10 C                    -0.237859
     11 C                    -0.197867
     12 H                     0.175106
     13 H                     0.185782
     14 H                     0.175106
     15 H                     0.185782
     16 H                     0.160829
  ----------------------------------------
  Sum of atomic charges =     0.000000

                    Cartesian Multipole Moments
 -----------------------------------------------------------------
    Charge (ESU x 10^10)
                 0.0000
    Dipole Moment (Debye)
         X      -0.0000      Y       0.0000      Z      -0.0791
       Tot       0.0791
    Quadrupole Moments (Debye-Ang)
        XX     -61.1445     XY       1.0042     YY     -67.8730
        XZ      -0.0000     YZ       0.0000     ZZ     -78.0400

 Total job time:  5925.31s(wall), 30933.73s(cpu)
        *  Thank you very much for using Q-Chem.  Have a nice day.  *
