 Q-Chem 4.4, Q-Chem, Inc., Pleasanton, CA (2016)
 Q-Chem 4.4.1 for Intel X86 EM64T Linux

User input:
--------------------------------------------------------------
$molecule
 0  1
 S           1.80900300       -1.15938900        0.25896800
 C           3.16466000       -0.14246800        0.05606700
 C           2.78757500        1.14089100       -0.25226100
 C           1.39402000        1.28822000       -0.33563400
 C           0.70898100        0.11689900       -0.08798100
 H           0.89277600        2.20524100       -0.58940400
 C          -0.70898100       -0.11689900       -0.08798100
 S          -1.34469520       -1.65659241       -0.51756770
 C          -1.73118138        0.75663081        0.21968012
 C          -2.95293942       -1.14159661       -0.26971112
 C          -3.00455818        0.17509079        0.11491776
 H          -3.92483314        0.69016478        0.31974766
 H           4.15569300       -0.53353100        0.17259300
 H           3.49202900        1.93475000       -0.41867900
 H          -3.76721306       -1.82256185       -0.41769682
 H          -1.54821139        1.76991055        0.53009667
$end

$rem
         jobtype = opt
        exchange = hf
           basis = cc-pvtz
  max_scf_cycles = 100
      mem_static = 6200
       mem_total = 62000
          method = mp2
$end

$opt
CONSTRAINT
tors 4 5 7 9 -30.0
ENDCONSTRAINT
$end

--------------------------------------------------------------

   16   -1101.5976743098      6.95E-09 Convergence criterion met
 Total energy in the final basis set = -1101.5976743098
        MP2         total energy =     -1103.4133925569 au
   10   -1101.5980953964      9.55E-09 Convergence criterion met
 Total energy in the final basis set = -1101.5980953964
        MP2         total energy =     -1103.4135456116 au
   10   -1101.5981535302      7.94E-09 Convergence criterion met
 Total energy in the final basis set = -1101.5981535302
        MP2         total energy =     -1103.4135715124 au
    9   -1101.5981673208      6.36E-09 Convergence criterion met
 Total energy in the final basis set = -1101.5981673208
        MP2         total energy =     -1103.4135742374 au
    9   -1101.5981480988      6.65E-09 Convergence criterion met
 Total energy in the final basis set = -1101.5981480988
        MP2         total energy =     -1103.4135759199 au

             Standard Nuclear Orientation (Angstroms)
    I     Atom           X                Y                Z
 ----------------------------------------------------------------
    1      S       1.6372388304     0.3482483084     1.1047781195
    2      C       3.1163399353     0.0765401231     0.2986256121
    3      C       2.9147121450    -0.2755498623    -1.0130902177
    4      C       1.5541233470    -0.3381042025    -1.3524423082
    5      C       0.7187287116    -0.0258627573    -0.3000111967
    6      H       1.1781765539    -0.6244483084    -2.3181503633
    7      C      -0.7187287116     0.0258627573    -0.3000111967
    8      S      -1.6372388304    -0.3482483084     1.1047781195
    9      C      -1.5541233470     0.3381042025    -1.3524423082
   10      C      -3.1163399353    -0.0765401231     0.2986256121
   11      C      -2.9147121450     0.2755498623    -1.0130902177
   12      H      -3.7191750648     0.4902314365    -1.6920497119
   13      H       4.0452352919     0.1875358864     0.8215119005
   14      H       3.7191750648    -0.4902314365    -1.6920497119
   15      H      -4.0452352919    -0.1875358864     0.8215119005
   16      H      -1.1781765539     0.6244483084    -2.3181503633
 ----------------------------------------------------------------

    8   -1101.5981462593      8.73E-09 Convergence criterion met
 Total energy in the final basis set = -1101.5981462593
        MP2         total energy =     -1103.4135764658 au
 Final energy is   -1103.41357646579
 **  OPTIMIZATION CONVERGED  **

             Orbital Energies (a.u.) and Symmetries
 --------------------------------------------------------------

 Alpha MOs, Restricted
 -- Occupied --
-91.985 -91.985 -11.275 -11.274 -11.261 -11.261 -11.238 -11.238
  1 A     1 B     2 A     2 B     3 B     3 A     4 B     4 A
-11.237 -11.237  -8.986  -8.986  -6.667  -6.667  -6.667  -6.667
  5 B     5 A     6 B     6 A     7 B     7 A     8 A     8 B
 -6.666  -6.666  -1.197  -1.167  -1.035  -0.999  -0.985  -0.948
  9 A     9 B    10 A    10 B    11 A    12 A    11 B    12 B
 -0.809  -0.777  -0.749  -0.717  -0.707  -0.645  -0.574  -0.571
 13 A    14 A    13 B    14 B    15 A    15 B    16 A    17 A
 -0.562  -0.553  -0.541  -0.512  -0.512  -0.486  -0.467  -0.370
 16 B    17 B    18 A    19 A    18 B    20 A    19 B    20 B
 -0.352  -0.349  -0.283
 21 B    21 A    22 A

 Beta MOs, Restricted
 -- Occupied --
-91.985 -91.985 -11.275 -11.274 -11.261 -11.261 -11.238 -11.238
  1 A     1 B     2 A     2 B     3 B     3 A     4 B     4 A
-11.237 -11.237  -8.986  -8.986  -6.667  -6.667  -6.667  -6.667
  5 B     5 A     6 B     6 A     7 B     7 A     8 A     8 B
 -6.666  -6.666  -1.197  -1.167  -1.035  -0.999  -0.985  -0.948
  9 A     9 B    10 A    10 B    11 A    12 A    11 B    12 B
 -0.809  -0.777  -0.749  -0.717  -0.707  -0.645  -0.574  -0.571
 13 A    14 A    13 B    14 B    15 A    15 B    16 A    17 A
 -0.562  -0.553  -0.541  -0.512  -0.512  -0.486  -0.467  -0.370
 16 B    17 B    18 A    19 A    18 B    20 A    19 B    20 B
 -0.352  -0.349  -0.283
 21 B    21 A    22 A

          Ground-State Mulliken Net Atomic Charges

     Atom                 Charge (a.u.)
  ----------------------------------------
      1 S                     0.110729
      2 C                    -0.238007
      3 C                    -0.198274
      4 C                    -0.193706
      5 C                    -0.009945
      6 H                     0.169941
      7 C                    -0.009945
      8 S                     0.110729
      9 C                    -0.193706
     10 C                    -0.238007
     11 C                    -0.198274
     12 H                     0.174043
     13 H                     0.185220
     14 H                     0.174043
     15 H                     0.185220
     16 H                     0.169941
  ----------------------------------------
  Sum of atomic charges =    -0.000000

                    Cartesian Multipole Moments
 -----------------------------------------------------------------
    Charge (ESU x 10^10)
                -0.0000
    Dipole Moment (Debye)
         X      -0.0000      Y       0.0000      Z      -0.6995
       Tot       0.6995
    Quadrupole Moments (Debye-Ang)
        XX     -61.0855     XY      -0.4795     YY     -77.2893
        XZ       0.0000     YZ      -0.0000     ZZ     -68.2498

 Total job time:  9290.26s(wall), 47036.08s(cpu)
        *  Thank you very much for using Q-Chem.  Have a nice day.  *
