 Q-Chem 4.4, Q-Chem, Inc., Pleasanton, CA (2016)
 Q-Chem 4.4.1 for Intel X86 EM64T Linux

User input:
--------------------------------------------------------------
$molecule
 0  1
 S           1.80900300       -1.15938900        0.25896800
 C           3.16466000       -0.14246800        0.05606700
 C           2.78757500        1.14089100       -0.25226100
 C           1.39402000        1.28822000       -0.33563400
 C           0.70898100        0.11689900       -0.08798100
 H           0.89277600        2.20524100       -0.58940400
 C          -0.70898100       -0.11689900       -0.08798100
 S          -1.71946910        0.61637464       -1.27143216
 C          -1.45966417       -0.89009451        0.77297591
 C          -3.12175837       -0.11772616       -0.63285261
 C          -2.82910267       -0.88902975        0.46428593
 H          -3.57441961       -1.43505899        1.01248044
 H           4.15569300       -0.53353100        0.17259300
 H           3.49202900        1.93475000       -0.41867900
 H          -4.07642660        0.05278806       -1.08912935
 H          -1.01745740       -1.44906050        1.57832209
$end

$rem
         jobtype = opt
        exchange = hf
           basis = cc-pvtz
  max_scf_cycles = 100
      mem_static = 6200
       mem_total = 62000
          method = mp2
$end

$opt
CONSTRAINT
tors 4 5 7 9 -140.0
ENDCONSTRAINT
$end

--------------------------------------------------------------

   15   -1101.5987479259      9.64E-09 Convergence criterion met
 Total energy in the final basis set = -1101.5987479259
        MP2         total energy =     -1103.4135356962 au
   11   -1101.5991700452      6.25E-09 Convergence criterion met
 Total energy in the final basis set = -1101.5991700452
        MP2         total energy =     -1103.4139178260 au
   10   -1101.5991979251      6.83E-09 Convergence criterion met
 Total energy in the final basis set = -1101.5991979251
        MP2         total energy =     -1103.4139622476 au
   10   -1101.5991920797      4.29E-09 Convergence criterion met
 Total energy in the final basis set = -1101.5991920797
        MP2         total energy =     -1103.4139738292 au
    9   -1101.5991822878      4.50E-09 Convergence criterion met
 Total energy in the final basis set = -1101.5991822878
        MP2         total energy =     -1103.4139755235 au

             Standard Nuclear Orientation (Angstroms)
    I     Atom           X                Y                Z
 ----------------------------------------------------------------
    1      S       1.7934112147    -1.1369775417    -0.3934192886
    2      C       3.1617086406    -0.1630611931    -0.0927620843
    3      C       2.8011573761     1.0871633102     0.3457921881
    4      C       1.4096180774     1.2421228484     0.4491831080
    5      C       0.7107171996     0.1114628469     0.0820389166
    6      H       0.9181827777     2.1321750976     0.7991989205
    7      C      -0.7107171996    -0.1114628469     0.0820389166
    8      S      -1.7934112147     1.1369775417    -0.3934192886
    9      C      -1.4096180774    -1.2421228484     0.4491831080
   10      C      -3.1617086406     0.1630611931    -0.0927620843
   11      C      -2.8011573761    -1.0871633102     0.3457921881
   12      H      -3.5161175063    -1.8506435199     0.5910290186
   13      H       4.1481207479    -0.5510824711    -0.2514847001
   14      H       3.5161175063     1.8506435199     0.5910290186
   15      H      -4.1481207479     0.5510824711    -0.2514847001
   16      H      -0.9181827777    -2.1321750976     0.7991989205
 ----------------------------------------------------------------

    9   -1101.5991816136      4.19E-09 Convergence criterion met
 Total energy in the final basis set = -1101.5991816136
        MP2         total energy =     -1103.4139762986 au
 Final energy is   -1103.41397629857
 **  OPTIMIZATION CONVERGED  **

             Orbital Energies (a.u.) and Symmetries
 --------------------------------------------------------------

 Alpha MOs, Restricted
 -- Occupied --
-91.985 -91.985 -11.275 -11.274 -11.261 -11.261 -11.238 -11.238
  1 A     1 B     2 A     2 B     3 B     3 A     4 A     4 B
-11.237 -11.237  -8.986  -8.986  -6.667  -6.667  -6.667  -6.667
  5 B     5 A     6 A     6 B     7 B     7 A     8 A     8 B
 -6.666  -6.666  -1.196  -1.167  -1.035  -0.998  -0.986  -0.948
  9 B     9 A    10 A    10 B    11 A    11 B    12 A    12 B
 -0.809  -0.778  -0.748  -0.718  -0.706  -0.645  -0.572  -0.571
 13 A    13 B    14 A    14 B    15 A    15 B    16 A    16 B
 -0.559  -0.555  -0.545  -0.513  -0.512  -0.482  -0.469  -0.366
 17 A    17 B    18 A    18 B    19 A    19 B    20 A    21 A
 -0.351  -0.350  -0.286
 20 B    22 A    21 B

 Beta MOs, Restricted
 -- Occupied --
-91.985 -91.985 -11.275 -11.274 -11.261 -11.261 -11.238 -11.238
  1 A     1 B     2 A     2 B     3 B     3 A     4 A     4 B
-11.237 -11.237  -8.986  -8.986  -6.667  -6.667  -6.667  -6.667
  5 B     5 A     6 A     6 B     7 B     7 A     8 A     8 B
 -6.666  -6.666  -1.196  -1.167  -1.035  -0.998  -0.986  -0.948
  9 B     9 A    10 A    10 B    11 A    11 B    12 A    12 B
 -0.809  -0.778  -0.748  -0.718  -0.706  -0.645  -0.572  -0.571
 13 A    13 B    14 A    14 B    15 A    15 B    16 A    16 B
 -0.559  -0.555  -0.545  -0.513  -0.512  -0.482  -0.469  -0.366
 17 A    17 B    18 A    18 B    19 A    19 B    20 A    21 A
 -0.351  -0.350  -0.286
 20 B    22 A    21 B

          Ground-State Mulliken Net Atomic Charges

     Atom                 Charge (a.u.)
  ----------------------------------------
      1 S                     0.116098
      2 C                    -0.237698
      3 C                    -0.194176
      4 C                    -0.216220
      5 C                     0.001657
      6 H                     0.171483
      7 C                     0.001657
      8 S                     0.116098
      9 C                    -0.216220
     10 C                    -0.237698
     11 C                    -0.194176
     12 H                     0.174355
     13 H                     0.184502
     14 H                     0.174355
     15 H                     0.184502
     16 H                     0.171483
  ----------------------------------------
  Sum of atomic charges =     0.000000

                    Cartesian Multipole Moments
 -----------------------------------------------------------------
    Charge (ESU x 10^10)
                -0.0000
    Dipole Moment (Debye)
         X      -0.0000      Y      -0.0000      Z       0.3126
       Tot       0.3126
    Quadrupole Moments (Debye-Ang)
        XX     -61.2233     XY       0.8443     YY     -68.9713
        XZ       0.0000     YZ       0.0000     ZZ     -76.8676

 Total job time:  8935.34s(wall), 46474.57s(cpu)
        *  Thank you very much for using Q-Chem.  Have a nice day.  *
