 Q-Chem 4.4, Q-Chem, Inc., Pleasanton, CA (2016)
 Q-Chem 4.4.1 for Intel X86 EM64T Linux

User input:
--------------------------------------------------------------
$molecule
 0  1
 S           1.80900300       -1.15938900        0.25896800
 C           3.16466000       -0.14246800        0.05606700
 C           2.78757500        1.14089100       -0.25226100
 C           1.39402000        1.28822000       -0.33563400
 C           0.70898100        0.11689900       -0.08798100
 H           0.89277600        2.20524100       -0.58940400
 C          -0.70898100       -0.11689900       -0.08798100
 S          -1.54618942       -0.43454963        1.38086658
 C          -1.58415392       -0.13507638       -1.15397597
 C          -3.04716573       -0.57012325        0.57974676
 C          -2.91074963       -0.39384894       -0.77472273
 H          -3.73821869       -0.44163359       -1.45822406
 H           4.15569300       -0.53353100        0.17259300
 H           3.49202900        1.93475000       -0.41867900
 H          -3.94072531       -0.77022699        1.13667113
 H          -1.26570602        0.05654307       -2.16315642
$end

$rem
         jobtype = opt
        exchange = hf
           basis = cc-pvtz
  max_scf_cycles = 100
      mem_static = 6200
       mem_total = 62000
          method = mp2
$end

$opt
CONSTRAINT
tors 4 5 7 9 70.0
ENDCONSTRAINT
$end

--------------------------------------------------------------

   16   -1101.5962287764      9.85E-09 Convergence criterion met
 Total energy in the final basis set = -1101.5962287764
        MP2         total energy =     -1103.4112489400 au
   11   -1101.5969750637      7.35E-09 Convergence criterion met
 Total energy in the final basis set = -1101.5969750637
        MP2         total energy =     -1103.4114973168 au
   10   -1101.5970438500      7.49E-09 Convergence criterion met
 Total energy in the final basis set = -1101.5970438500
        MP2         total energy =     -1103.4115423946 au
   10   -1101.5970634052      5.81E-09 Convergence criterion met
 Total energy in the final basis set = -1101.5970634052
        MP2         total energy =     -1103.4115555807 au
   10   -1101.5970217771      3.62E-09 Convergence criterion met
 Total energy in the final basis set = -1101.5970217771
        MP2         total energy =     -1103.4115595148 au
   10   -1101.5970041739      3.17E-09 Convergence criterion met
 Total energy in the final basis set = -1101.5970041739
        MP2         total energy =     -1103.4115616560 au

             Standard Nuclear Orientation (Angstroms)
    I     Atom           X                Y                Z
 ----------------------------------------------------------------
    1      S       1.6614437147    -0.7016090343     0.9424111541
    2      C       3.1224460440    -0.1338902952     0.2728105303
    3      C       2.9002206747     0.6068260868    -0.8623620282
    4      C       1.5355354592     0.7153463768    -1.1755950794
    5      C       0.7218091781     0.0439382589    -0.2891069547
    6      H       1.1392505209     1.2660028321    -2.0095272590
    7      C      -0.7218091781    -0.0439382589    -0.2891069547
    8      S      -1.6614437147     0.7016090343     0.9424111541
    9      C      -1.5355354592    -0.7153463768    -1.1755950794
   10      C      -3.1224460440     0.1338902952     0.2728105303
   11      C      -2.9002206747    -0.6068260868    -0.8623620282
   12      H      -3.6918847818    -1.0559073436    -1.4331330137
   13      H       4.0598286831    -0.3687572982     0.7365952843
   14      H       3.6918847818     1.0559073436    -1.4331330137
   15      H      -4.0598286831     0.3687572982     0.7365952843
   16      H      -1.1392505209    -1.2660028321    -2.0095272590
 ----------------------------------------------------------------

    9   -1101.5970060185      5.11E-09 Convergence criterion met
 Total energy in the final basis set = -1101.5970060185
        MP2         total energy =     -1103.4115621813 au
 Final energy is   -1103.41156218128
 **  OPTIMIZATION CONVERGED  **

             Orbital Energies (a.u.) and Symmetries
 --------------------------------------------------------------

 Alpha MOs, Restricted
 -- Occupied --
-91.984 -91.984 -11.272 -11.271 -11.261 -11.261 -11.238 -11.238
  1 B     1 A     2 A     2 B     3 B     3 A     4 B     4 A
-11.236 -11.236  -8.985  -8.985  -6.666  -6.666  -6.666  -6.666
  5 A     5 B     6 B     6 A     7 A     7 B     8 A     8 B
 -6.665  -6.665  -1.195  -1.166  -1.033  -0.994  -0.988  -0.948
  9 B     9 A    10 A    10 B    11 A    12 A    11 B    12 B
 -0.806  -0.768  -0.758  -0.718  -0.704  -0.645  -0.571  -0.567
 13 A    14 A    13 B    14 B    15 A    15 B    16 A    17 A
 -0.566  -0.554  -0.537  -0.512  -0.512  -0.479  -0.473  -0.354
 16 B    17 B    18 A    18 B    19 A    20 A    19 B    21 A
 -0.345  -0.342  -0.304
 20 B    21 B    22 A

 Beta MOs, Restricted
 -- Occupied --
-91.984 -91.984 -11.272 -11.271 -11.261 -11.261 -11.238 -11.238
  1 B     1 A     2 A     2 B     3 B     3 A     4 B     4 A
-11.236 -11.236  -8.985  -8.985  -6.666  -6.666  -6.666  -6.666
  5 A     5 B     6 B     6 A     7 A     7 B     8 A     8 B
 -6.665  -6.665  -1.195  -1.166  -1.033  -0.994  -0.988  -0.948
  9 B     9 A    10 A    10 B    11 A    12 A    11 B    12 B
 -0.806  -0.768  -0.758  -0.718  -0.704  -0.645  -0.571  -0.567
 13 A    14 A    13 B    14 B    15 A    15 B    16 A    17 A
 -0.566  -0.554  -0.537  -0.512  -0.512  -0.479  -0.473  -0.354
 16 B    17 B    18 A    18 B    19 A    20 A    19 B    21 A
 -0.345  -0.342  -0.304
 20 B    21 B    22 A

          Ground-State Mulliken Net Atomic Charges

     Atom                 Charge (a.u.)
  ----------------------------------------
      1 S                     0.127258
      2 C                    -0.238254
      3 C                    -0.191025
      4 C                    -0.193238
      5 C                    -0.040053
      6 H                     0.176500
      7 C                    -0.040053
      8 S                     0.127258
      9 C                    -0.193238
     10 C                    -0.238254
     11 C                    -0.191025
     12 H                     0.174541
     13 H                     0.184271
     14 H                     0.174541
     15 H                     0.184271
     16 H                     0.176500
  ----------------------------------------
  Sum of atomic charges =    -0.000000

                    Cartesian Multipole Moments
 -----------------------------------------------------------------
    Charge (ESU x 10^10)
                 0.0000
    Dipole Moment (Debye)
         X      -0.0000      Y       0.0000      Z      -0.5686
       Tot       0.5686
    Quadrupole Moments (Debye-Ang)
        XX     -61.3303     XY       0.9326     YY     -74.6963
        XZ       0.0000     YZ      -0.0000     ZZ     -70.7178

 Total job time:  10289.99s(wall), 53404.27s(cpu)
        *  Thank you very much for using Q-Chem.  Have a nice day.  *
