 Q-Chem 4.4, Q-Chem, Inc., Pleasanton, CA (2016)
 Q-Chem 4.4.1 for Intel X86 EM64T Linux

User input:
--------------------------------------------------------------
$molecule
 0  1
 S           1.80900300       -1.15938900        0.25896800
 C           3.16466000       -0.14246800        0.05606700
 C           2.78757500        1.14089100       -0.25226100
 C           1.39402000        1.28822000       -0.33563400
 C           0.70898100        0.11689900       -0.08798100
 H           0.89277600        2.20524100       -0.58940400
 C          -0.70898100       -0.11689900       -0.08798100
 S          -1.48050740       -0.83290467       -1.44864847
 C          -1.63308718        0.16169907        0.89741953
 C          -3.01312807       -0.77655833       -0.69964779
 C          -2.94082629       -0.21143693        0.54922363
 H          -3.79733968       -0.08307058        1.18488815
 H           4.15569300       -0.53353100        0.17259300
 H           3.49202900        1.93475000       -0.41867900
 H          -3.87719221       -1.15554902       -1.20799236
 H          -1.35506046        0.59846904        1.84002518
$end

$rem
         jobtype = opt
        exchange = hf
           basis = cc-pvtz
  max_scf_cycles = 100
      mem_static = 6200
       mem_total = 62000
          method = mp2
$end

$opt
CONSTRAINT
tors 4 5 7 9 -80.0
ENDCONSTRAINT
$end

--------------------------------------------------------------

   18   -1101.5957106917      4.36E-09 Convergence criterion met
 Total energy in the final basis set = -1101.5957106917
        MP2         total energy =     -1103.4107028970 au
   11   -1101.5965203378      6.44E-09 Convergence criterion met
 Total energy in the final basis set = -1101.5965203378
        MP2         total energy =     -1103.4109788556 au
   10   -1101.5965475363      4.71E-09 Convergence criterion met
 Total energy in the final basis set = -1101.5965475363
        MP2         total energy =     -1103.4109965099 au
    9   -1101.5965771588      9.81E-09 Convergence criterion met
 Total energy in the final basis set = -1101.5965771588
        MP2         total energy =     -1103.4110023273 au
    9   -1101.5965570299      8.35E-09 Convergence criterion met
 Total energy in the final basis set = -1101.5965570299
        MP2         total energy =     -1103.4110043130 au
    9   -1101.5965414984      8.48E-09 Convergence criterion met
 Total energy in the final basis set = -1101.5965414984
        MP2         total energy =     -1103.4110054839 au

             Standard Nuclear Orientation (Angstroms)
    I     Atom           X                Y                Z
 ----------------------------------------------------------------
    1      S       1.6846242409     0.7898871928     0.8851002648
    2      C       3.1307779535     0.1424358756     0.2580267403
    3      C       2.8865443605    -0.7023582932    -0.7972500647
    4      C       1.5171704487    -0.8210880110    -1.0855319106
    5      C       0.7216885190    -0.0591421820    -0.2579443788
    6      H       1.1054818116    -1.4378944654    -1.8638215472
    7      C      -0.7216885190     0.0591421820    -0.2579443788
    8      S      -1.6846242409    -0.7898871928     0.8851002648
    9      C      -1.5171704487     0.8210880110    -1.0855319106
   10      C      -3.1307779535    -0.1424358756     0.2580267403
   11      C      -2.8865443605     0.7023582932    -0.7972500647
   12      H      -3.6661365024     1.2140467043    -1.3306686649
   13      H       4.0765032316     0.4093777629     0.6862192097
   14      H       3.6661365024    -1.2140467043    -1.3306686649
   15      H      -4.0765032316    -0.4093777629     0.6862192097
   16      H      -1.1054818116     1.4378944654    -1.8638215472
 ----------------------------------------------------------------

    9   -1101.5965397339      6.22E-09 Convergence criterion met
 Total energy in the final basis set = -1101.5965397339
        MP2         total energy =     -1103.4110059558 au
 Final energy is   -1103.41100595584
 **  OPTIMIZATION CONVERGED  **

             Orbital Energies (a.u.) and Symmetries
 --------------------------------------------------------------

 Alpha MOs, Restricted
 -- Occupied --
-91.984 -91.984 -11.272 -11.271 -11.261 -11.261 -11.238 -11.238
  1 B     1 A     2 A     2 B     3 B     3 A     4 B     4 A
-11.236 -11.236  -8.985  -8.985  -6.666  -6.666  -6.666  -6.666
  5 A     5 B     6 B     6 A     7 A     7 B     8 A     8 B
 -6.665  -6.665  -1.194  -1.166  -1.032  -0.992  -0.989  -0.948
  9 B     9 A    10 A    10 B    11 A    12 A    11 B    12 B
 -0.806  -0.765  -0.761  -0.718  -0.703  -0.645  -0.570  -0.567
 13 A    14 A    13 B    14 B    15 A    15 B    16 A    16 B
 -0.566  -0.554  -0.537  -0.512  -0.512  -0.477  -0.475  -0.354
 17 A    17 B    18 A    18 B    19 A    20 A    19 B    21 A
 -0.344  -0.332  -0.313
 20 B    21 B    22 A

 Beta MOs, Restricted
 -- Occupied --
-91.984 -91.984 -11.272 -11.271 -11.261 -11.261 -11.238 -11.238
  1 B     1 A     2 A     2 B     3 B     3 A     4 B     4 A
-11.236 -11.236  -8.985  -8.985  -6.666  -6.666  -6.666  -6.666
  5 A     5 B     6 B     6 A     7 A     7 B     8 A     8 B
 -6.665  -6.665  -1.194  -1.166  -1.032  -0.992  -0.989  -0.948
  9 B     9 A    10 A    10 B    11 A    12 A    11 B    12 B
 -0.806  -0.765  -0.761  -0.718  -0.703  -0.645  -0.570  -0.567
 13 A    14 A    13 B    14 B    15 A    15 B    16 A    16 B
 -0.566  -0.554  -0.537  -0.512  -0.512  -0.477  -0.475  -0.354
 17 A    17 B    18 A    18 B    19 A    20 A    19 B    21 A
 -0.344  -0.332  -0.313
 20 B    21 B    22 A

          Ground-State Mulliken Net Atomic Charges

     Atom                 Charge (a.u.)
  ----------------------------------------
      1 S                     0.130118
      2 C                    -0.239085
      3 C                    -0.190965
      4 C                    -0.191837
      5 C                    -0.043591
      6 H                     0.176389
      7 C                    -0.043591
      8 S                     0.130118
      9 C                    -0.191837
     10 C                    -0.239085
     11 C                    -0.190965
     12 H                     0.174697
     13 H                     0.184274
     14 H                     0.174697
     15 H                     0.184274
     16 H                     0.176389
  ----------------------------------------
  Sum of atomic charges =     0.000000

                    Cartesian Multipole Moments
 -----------------------------------------------------------------
    Charge (ESU x 10^10)
                -0.0000
    Dipole Moment (Debye)
         X      -0.0000      Y      -0.0000      Z      -0.5421
       Tot       0.5421
    Quadrupole Moments (Debye-Ang)
        XX     -61.3703     XY      -0.9691     YY     -73.7536
        XZ      -0.0000     YZ       0.0000     ZZ     -71.6661

 Total job time:  10481.48s(wall), 53817.70s(cpu)
        *  Thank you very much for using Q-Chem.  Have a nice day.  *
