 Q-Chem 4.4, Q-Chem, Inc., Pleasanton, CA (2016)
 Q-Chem 4.4.1 for Intel X86 EM64T Linux

User input:
--------------------------------------------------------------
$molecule
 0  1
 S           1.80900300       -1.15938900        0.25896800
 C           3.16466000       -0.14246800        0.05606700
 C           2.78757500        1.14089100       -0.25226100
 C           1.39402000        1.28822000       -0.33563400
 C           0.70898100        0.11689900       -0.08798100
 H           0.89277600        2.20524100       -0.58940400
 C          -0.70898100       -0.11689900       -0.08798100
 S          -1.43057116       -1.13576310        1.09547016
 C          -1.66815307        0.37437024       -0.94893791
 C          -2.99430644       -0.89070969        0.45689061
 C          -2.96476014       -0.06628043       -0.64024793
 H          -3.84592095        0.21157008       -1.18844244
 H           4.15569300       -0.53353100        0.17259300
 H           3.49202900        1.93475000       -0.41867900
 H          -3.84369884       -1.35868306        0.91316735
 H          -1.42880350        1.04571337       -1.75428409
$end

$rem
         jobtype = opt
        exchange = hf
           basis = cc-pvtz
  max_scf_cycles = 100
      mem_static = 6200
       mem_total = 62000
          method = mp2
$end

$opt
CONSTRAINT
tors 4 5 7 9 40.0
ENDCONSTRAINT
$end

--------------------------------------------------------------

   16   -1101.5974846073      7.26E-09 Convergence criterion met
 Total energy in the final basis set = -1101.5974846073
        MP2         total energy =     -1103.4129372737 au
   11   -1101.5981947790      7.21E-09 Convergence criterion met
 Total energy in the final basis set = -1101.5981947790
        MP2         total energy =     -1103.4133659865 au
   10   -1101.5982919672      5.31E-09 Convergence criterion met
 Total energy in the final basis set = -1101.5982919672
        MP2         total energy =     -1103.4134332229 au
    9   -1101.5983222296      9.07E-09 Convergence criterion met
 Total energy in the final basis set = -1101.5983222296
        MP2         total energy =     -1103.4134463694 au
    8   -1101.5982977843      5.39E-09 Convergence criterion met
 Total energy in the final basis set = -1101.5982977843
        MP2         total energy =     -1103.4134478623 au

             Standard Nuclear Orientation (Angstroms)
    I     Atom           X                Y                Z
 ----------------------------------------------------------------
    1      S       1.6383326921    -0.4424507778     1.0734802741
    2      C       3.1158854887    -0.1008350022     0.2921313816
    3      C       2.9135210072     0.3475842147    -0.9899042875
    4      C       1.5525553582     0.4261422245    -1.3255248464
    5      C       0.7193385151     0.0248405542    -0.3026206133
    6      H       1.1732305616     0.7812890850    -2.2667573148
    7      C      -0.7193385151    -0.0248405542    -0.3026206133
    8      S      -1.6383326921     0.4424507778     1.0734802741
    9      C      -1.5525553582    -0.4261422245    -1.3255248464
   10      C      -3.1158854887     0.1008350022     0.2921313816
   11      C      -2.9135210072    -0.3475842147    -0.9899042875
   12      H      -3.7173286679    -0.6193623771    -1.6489078308
   13      H       4.0455557920    -0.2446114019     0.8056660181
   14      H       3.7173286679     0.6193623771    -1.6489078308
   15      H      -4.0455557920     0.2446114019     0.8056660181
   16      H      -1.1732305616    -0.7812890850    -2.2667573148
 ----------------------------------------------------------------

    8   -1101.5982987664      5.27E-09 Convergence criterion met
 Total energy in the final basis set = -1101.5982987664
        MP2         total energy =     -1103.4134484675 au
 Final energy is   -1103.41344846754
 **  OPTIMIZATION CONVERGED  **

             Orbital Energies (a.u.) and Symmetries
 --------------------------------------------------------------

 Alpha MOs, Restricted
 -- Occupied --
-91.985 -91.985 -11.274 -11.273 -11.261 -11.261 -11.238 -11.238
  1 B     1 A     2 A     2 B     3 B     3 A     4 B     4 A
-11.237 -11.237  -8.986  -8.986  -6.667  -6.667  -6.667  -6.667
  5 B     5 A     6 B     6 A     7 B     7 A     8 A     8 B
 -6.666  -6.666  -1.196  -1.166  -1.035  -0.998  -0.986  -0.948
  9 B     9 A    10 A    10 B    11 A    12 A    11 B    12 B
 -0.809  -0.775  -0.751  -0.717  -0.706  -0.645  -0.573  -0.570
 13 A    14 A    13 B    14 B    15 A    15 B    16 A    17 A
 -0.563  -0.553  -0.540  -0.512  -0.512  -0.484  -0.469  -0.364
 16 B    17 B    18 A    19 A    18 B    20 A    19 B    20 B
 -0.350  -0.350  -0.287
 21 A    21 B    22 A

 Beta MOs, Restricted
 -- Occupied --
-91.985 -91.985 -11.274 -11.273 -11.261 -11.261 -11.238 -11.238
  1 B     1 A     2 A     2 B     3 B     3 A     4 B     4 A
-11.237 -11.237  -8.986  -8.986  -6.667  -6.667  -6.667  -6.667
  5 B     5 A     6 B     6 A     7 B     7 A     8 A     8 B
 -6.666  -6.666  -1.196  -1.166  -1.035  -0.998  -0.986  -0.948
  9 B     9 A    10 A    10 B    11 A    12 A    11 B    12 B
 -0.809  -0.775  -0.751  -0.717  -0.706  -0.645  -0.573  -0.570
 13 A    14 A    13 B    14 B    15 A    15 B    16 A    17 A
 -0.563  -0.553  -0.540  -0.512  -0.512  -0.484  -0.469  -0.364
 16 B    17 B    18 A    19 A    18 B    20 A    19 B    20 B
 -0.350  -0.350  -0.287
 21 A    21 B    22 A

          Ground-State Mulliken Net Atomic Charges

     Atom                 Charge (a.u.)
  ----------------------------------------
      1 S                     0.114601
      2 C                    -0.237757
      3 C                    -0.195686
      4 C                    -0.196571
      5 C                    -0.016500
      6 H                     0.173014
      7 C                    -0.016500
      8 S                     0.114601
      9 C                    -0.196571
     10 C                    -0.237757
     11 C                    -0.195686
     12 H                     0.174100
     13 H                     0.184798
     14 H                     0.174100
     15 H                     0.184798
     16 H                     0.173014
  ----------------------------------------
  Sum of atomic charges =    -0.000000

                    Cartesian Multipole Moments
 -----------------------------------------------------------------
    Charge (ESU x 10^10)
                -0.0000
    Dipole Moment (Debye)
         X       0.0000      Y      -0.0000      Z      -0.6709
       Tot       0.6709
    Quadrupole Moments (Debye-Ang)
        XX     -61.1423     XY       0.5763     YY     -76.8004
        XZ       0.0000     YZ       0.0000     ZZ     -68.7142

 Total job time:  8980.12s(wall), 46510.93s(cpu)
        *  Thank you very much for using Q-Chem.  Have a nice day.  *
