 Q-Chem 4.4, Q-Chem, Inc., Pleasanton, CA (2016)
 Q-Chem 4.4.1 for Intel X86 EM64T Linux

User input:
--------------------------------------------------------------
$molecule
 0  1
 S           1.80900300       -1.15938900        0.25896800
 C           3.16466000       -0.14246800        0.05606700
 C           2.78757500        1.14089100       -0.25226100
 C           1.39402000        1.28822000       -0.33563400
 C           0.70898100        0.11689900       -0.08798100
 H           0.89277600        2.20524100       -0.58940400
 C          -0.70898100       -0.11689900       -0.08798100
 S          -1.80534506        1.13720394        0.34160570
 C          -1.39663586       -1.27235508       -0.39564212
 C          -3.16312539        0.13316076        0.09374912
 C          -2.78930463       -1.13040097       -0.29087976
 H          -3.49550743       -1.91365369       -0.49570966
 H           4.15569300       -0.53353100        0.17259300
 H           3.49202900        1.93475000       -0.41867900
 H          -4.15291239        0.51666685        0.24173482
 H          -0.89804951       -2.17325768       -0.70605867
$end

$rem
         jobtype = opt
        exchange = hf
           basis = cc-pvtz
  max_scf_cycles = 100
      mem_static = 6200
       mem_total = 62000
          method = mp2
$end

$opt
CONSTRAINT
tors 4 5 7 9 150.0
ENDCONSTRAINT
$end

--------------------------------------------------------------

   15   -1101.5990744142      6.37E-09 Convergence criterion met
 Total energy in the final basis set = -1101.5990744142
        MP2         total energy =     -1103.4139673271 au
    9   -1101.5993229545      5.05E-09 Convergence criterion met
 Total energy in the final basis set = -1101.5993229545
        MP2         total energy =     -1103.4142128113 au

             Standard Nuclear Orientation (Angstroms)
    I     Atom           X                Y                Z
 ----------------------------------------------------------------
    1      S       1.8013098925    -1.1599119639     0.2981052229
    2      C       3.1632505806    -0.1569653213     0.0706425437
    3      C       2.7943135816     1.1203095842    -0.2715811747
    4      C       1.4017398130     1.2736658002    -0.3615706231
    5      C       0.7098152921     0.1133558282    -0.0837943571
    6      H       0.9055096881     2.1857889104    -0.6412633553
    7      C      -0.7098152921    -0.1133558282    -0.0837943571
    8      S      -1.8013098925     1.1599119639     0.2981052229
    9      C      -1.4017398130    -1.2736658002    -0.3615706231
   10      C      -3.1632505806     0.1569653213     0.0706425437
   11      C      -2.7943135816    -1.1203095842    -0.2715811747
   12      H      -3.5039095739    -1.9050897674    -0.4580804558
   13      H       4.1519334870    -0.5505424119     0.1983063728
   14      H       3.5039095739     1.9050897674    -0.4580804558
   15      H      -4.1519334870     0.5505424119     0.1983063728
   16      H      -0.9055096881    -2.1857889104    -0.6412633553
 ----------------------------------------------------------------

    9   -1101.5993248309      8.12E-09 Convergence criterion met
 Total energy in the final basis set = -1101.5993248309
        MP2         total energy =     -1103.4142137109 au
 Final energy is   -1103.41421371087
 **  OPTIMIZATION CONVERGED  **

             Orbital Energies (a.u.) and Symmetries
 --------------------------------------------------------------

 Alpha MOs, Restricted
 -- Occupied --
-91.985 -91.985 -11.275 -11.274 -11.261 -11.261 -11.238 -11.238
  1 A     1 B     2 A     2 B     3 B     3 A     4 B     4 A
-11.237 -11.237  -8.986  -8.986  -6.667  -6.667  -6.667  -6.667
  5 B     5 A     6 A     6 B     7 B     7 A     8 A     8 B
 -6.666  -6.666  -1.197  -1.167  -1.036  -0.999  -0.985  -0.948
  9 B     9 A    10 A    10 B    11 A    11 B    12 A    12 B
 -0.809  -0.779  -0.746  -0.718  -0.707  -0.645  -0.572  -0.572
 13 A    13 B    14 A    14 B    15 A    15 B    16 A    16 B
 -0.559  -0.555  -0.547  -0.513  -0.512  -0.483  -0.468  -0.371
 17 A    17 B    18 A    18 B    19 A    19 B    20 A    21 A
 -0.353  -0.349  -0.282
 20 B    22 A    21 B

 Beta MOs, Restricted
 -- Occupied --
-91.985 -91.985 -11.275 -11.274 -11.261 -11.261 -11.238 -11.238
  1 A     1 B     2 A     2 B     3 B     3 A     4 B     4 A
-11.237 -11.237  -8.986  -8.986  -6.667  -6.667  -6.667  -6.667
  5 B     5 A     6 A     6 B     7 B     7 A     8 A     8 B
 -6.666  -6.666  -1.197  -1.167  -1.036  -0.999  -0.985  -0.948
  9 B     9 A    10 A    10 B    11 A    11 B    12 A    12 B
 -0.809  -0.779  -0.746  -0.718  -0.707  -0.645  -0.572  -0.572
 13 A    13 B    14 A    14 B    15 A    15 B    16 A    16 B
 -0.559  -0.555  -0.547  -0.513  -0.512  -0.483  -0.468  -0.371
 17 A    17 B    18 A    18 B    19 A    19 B    20 A    21 A
 -0.353  -0.349  -0.282
 20 B    22 A    21 B

          Ground-State Mulliken Net Atomic Charges

     Atom                 Charge (a.u.)
  ----------------------------------------
      1 S                     0.112064
      2 C                    -0.237964
      3 C                    -0.194643
      4 C                    -0.218542
      5 C                     0.012105
      6 H                     0.167642
      7 C                     0.012105
      8 S                     0.112064
      9 C                    -0.218542
     10 C                    -0.237964
     11 C                    -0.194643
     12 H                     0.174575
     13 H                     0.184762
     14 H                     0.174575
     15 H                     0.184762
     16 H                     0.167642
  ----------------------------------------
  Sum of atomic charges =     0.000000

                    Cartesian Multipole Moments
 -----------------------------------------------------------------
    Charge (ESU x 10^10)
                 0.0000
    Dipole Moment (Debye)
         X       0.0000      Y       0.0000      Z      -0.2362
       Tot       0.2362
    Quadrupole Moments (Debye-Ang)
        XX     -61.1901     XY       0.9089     YY     -68.5173
        XZ      -0.0000     YZ       0.0000     ZZ     -77.3515

 Total job time:  4384.87s(wall), 22978.20s(cpu)
        *  Thank you very much for using Q-Chem.  Have a nice day.  *
