 Q-Chem 4.4, Q-Chem, Inc., Pleasanton, CA (2016)
 Q-Chem 4.4.1 for Intel X86 EM64T Linux

User input:
--------------------------------------------------------------
$molecule
 0  1
 S           1.80900300       -1.15938900        0.25896800
 C           3.16466000       -0.14246800        0.05606700
 C           2.78757500        1.14089100       -0.25226100
 C           1.39402000        1.28822000       -0.33563400
 C           0.70898100        0.11689900       -0.08798100
 H           0.89277600        2.20524100       -0.58940400
 C          -0.70898100       -0.11689900       -0.08798100
 S          -1.33468240       -1.71731905       -0.00744229
 C          -1.73821250        0.79927386       -0.15053604
 C          -2.94916546       -1.16448529       -0.03781170
 C          -3.00935720        0.20419636       -0.12358514
 H          -3.93457425        0.74924366       -0.15613276
 H           4.15569300       -0.53353100        0.17259300
 H           3.49202900        1.93475000       -0.41867900
 H          -3.76049725       -1.86329259        0.00762040
 H          -1.56299773        1.85958825       -0.19060419
$end

$rem
         jobtype = opt
        exchange = hf
           basis = cc-pvtz
  max_scf_cycles = 100
      mem_static = 6200
       mem_total = 62000
          method = mp2
$end

$opt
CONSTRAINT
tors 4 5 7 9 -10.0
ENDCONSTRAINT
$end

--------------------------------------------------------------

   16   -1101.5963375439      4.64E-09 Convergence criterion met
 Total energy in the final basis set = -1101.5963375439
        MP2         total energy =     -1103.4126182186 au
   11   -1101.5971591534      4.23E-09 Convergence criterion met
 Total energy in the final basis set = -1101.5971591534
        MP2         total energy =     -1103.4130334865 au
   10   -1101.5970999971      8.04E-09 Convergence criterion met
 Total energy in the final basis set = -1101.5970999971
        MP2         total energy =     -1103.4130541616 au
    9   -1101.5971082871      7.41E-09 Convergence criterion met
 Total energy in the final basis set = -1101.5971082871
        MP2         total energy =     -1103.4130580125 au
    9   -1101.5970973808      9.69E-09 Convergence criterion met
 Total energy in the final basis set = -1101.5970973808
        MP2         total energy =     -1103.4130611765 au
    9   -1101.5970989239      6.17E-09 Convergence criterion met
 Total energy in the final basis set = -1101.5970989239
        MP2         total energy =     -1103.4130623529 au

             Standard Nuclear Orientation (Angstroms)
    I     Atom           X                Y                Z
 ----------------------------------------------------------------
    1      S       1.6305032968     0.1332166692     1.1416447271
    2      C       3.1161486189     0.0308075613     0.3081144229
    3      C       2.9220329349    -0.1013836495    -1.0442881833
    4      C       1.5638585357    -0.1274275582    -1.3953319223
    5      C       0.7189448664    -0.0149038462    -0.3096129338
    6      H       1.2011910424    -0.2396724734    -2.4010892823
    7      C      -0.7189448664     0.0149038462    -0.3096129338
    8      S      -1.6305032968    -0.1332166692     1.1416447271
    9      C      -1.5638585357     0.1274275582    -1.3953319223
   10      C      -3.1161486189    -0.0308075613     0.3081144229
   11      C      -2.9220329349     0.1013836495    -1.0442881833
   12      H      -3.7304586068     0.1816565801    -1.7472958214
   13      H       4.0410694715     0.0721005812     0.8477213841
   14      H       3.7304586068    -0.1816565801    -1.7472958214
   15      H      -4.0410694715    -0.0721005812     0.8477213841
   16      H      -1.2011910424     0.2396724734    -2.4010892823
 ----------------------------------------------------------------

    9   -1101.5971070076      3.68E-09 Convergence criterion met
 Total energy in the final basis set = -1101.5971070076
        MP2         total energy =     -1103.4130626818 au
 Final energy is   -1103.41306268179
 **  OPTIMIZATION CONVERGED  **

             Orbital Energies (a.u.) and Symmetries
 --------------------------------------------------------------

 Alpha MOs, Restricted
 -- Occupied --
-91.985 -91.985 -11.276 -11.275 -11.261 -11.261 -11.238 -11.238
  1 A     1 B     2 A     2 B     3 B     3 A     4 B     4 A
-11.237 -11.237  -8.986  -8.986  -6.668  -6.668  -6.667  -6.667
  5 B     5 A     6 B     6 A     7 B     7 A     8 B     8 A
 -6.666  -6.666  -1.197  -1.167  -1.036  -1.001  -0.985  -0.948
  9 A     9 B    10 A    10 B    11 A    12 A    11 B    12 B
 -0.810  -0.780  -0.746  -0.717  -0.709  -0.645  -0.575  -0.572
 13 A    14 A    13 B    14 B    15 A    15 B    16 A    17 A
 -0.559  -0.555  -0.543  -0.512  -0.511  -0.489  -0.464  -0.378
 16 B    17 B    18 A    19 A    18 B    20 A    19 B    20 B
 -0.356  -0.346  -0.277
 21 B    21 A    22 A

 Beta MOs, Restricted
 -- Occupied --
-91.985 -91.985 -11.276 -11.275 -11.261 -11.261 -11.238 -11.238
  1 A     1 B     2 A     2 B     3 B     3 A     4 B     4 A
-11.237 -11.237  -8.986  -8.986  -6.668  -6.668  -6.667  -6.667
  5 B     5 A     6 B     6 A     7 B     7 A     8 B     8 A
 -6.666  -6.666  -1.197  -1.167  -1.036  -1.001  -0.985  -0.948
  9 A     9 B    10 A    10 B    11 A    12 A    11 B    12 B
 -0.810  -0.780  -0.746  -0.717  -0.709  -0.645  -0.575  -0.572
 13 A    14 A    13 B    14 B    15 A    15 B    16 A    17 A
 -0.559  -0.555  -0.543  -0.512  -0.511  -0.489  -0.464  -0.378
 16 B    17 B    18 A    19 A    18 B    20 A    19 B    20 B
 -0.356  -0.346  -0.277
 21 B    21 A    22 A

          Ground-State Mulliken Net Atomic Charges

     Atom                 Charge (a.u.)
  ----------------------------------------
      1 S                     0.102386
      2 C                    -0.236523
      3 C                    -0.205888
      4 C                    -0.181584
      5 C                    -0.003665
      6 H                     0.164881
      7 C                    -0.003665
      8 S                     0.102386
      9 C                    -0.181584
     10 C                    -0.236523
     11 C                    -0.205888
     12 H                     0.173922
     13 H                     0.186472
     14 H                     0.173922
     15 H                     0.186472
     16 H                     0.164881
  ----------------------------------------
  Sum of atomic charges =    -0.000000

                    Cartesian Multipole Moments
 -----------------------------------------------------------------
    Charge (ESU x 10^10)
                 0.0000
    Dipole Moment (Debye)
         X       0.0000      Y       0.0000      Z      -0.7379
       Tot       0.7379
    Quadrupole Moments (Debye-Ang)
        XX     -61.0064     XY      -0.1786     YY     -78.0043
        XZ       0.0000     YZ      -0.0000     ZZ     -67.5315

 Total job time:  10468.40s(wall), 54564.84s(cpu)
        *  Thank you very much for using Q-Chem.  Have a nice day.  *
