 Q-Chem 4.4, Q-Chem, Inc., Pleasanton, CA (2016)
 Q-Chem 4.4.1 for Intel X86 EM64T Linux

User input:
--------------------------------------------------------------
$molecule
 0  1
 S           1.80900300       -1.15938900        0.25896800
 C           3.16466000       -0.14246800        0.05606700
 C           2.78757500        1.14089100       -0.25226100
 C           1.39402000        1.28822000       -0.33563400
 C           0.70898100        0.11689900       -0.08798100
 H           0.89277600        2.20524100       -0.58940400
 C          -0.70898100       -0.11689900       -0.08798100
 S          -1.79638238        1.08284616       -0.66893096
 C          -1.40359724       -1.23013497        0.33724515
 C          -3.15754235        0.09930012       -0.36399856
 C          -2.79326680       -1.10637076        0.18183165
 H          -3.50309163       -1.86765620        0.44783107
 H           4.15569300       -0.53353100        0.17259300
 H           3.49202900        1.93475000       -0.41867900
 H          -4.14227347        0.45214285       -0.59736868
 H          -0.90946984       -2.10399448        0.72296518
$end

$rem
         jobtype = opt
        exchange = hf
           basis = cc-pvtz
  max_scf_cycles = 100
      mem_static = 6200
       mem_total = 62000
          method = mp2
$end

$opt
CONSTRAINT
tors 4 5 7 9 -170.0
ENDCONSTRAINT
$end

--------------------------------------------------------------

   16   -1101.5987243917      5.16E-09 Convergence criterion met
 Total energy in the final basis set = -1101.5987243917
        MP2         total energy =     -1103.4138511726 au
   10   -1101.5989485909      8.68E-09 Convergence criterion met
 Total energy in the final basis set = -1101.5989485909
        MP2         total energy =     -1103.4140131990 au
    9   -1101.5989603553      5.30E-09 Convergence criterion met
 Total energy in the final basis set = -1101.5989603553
        MP2         total energy =     -1103.4140389875 au
    9   -1101.5989813813      5.04E-09 Convergence criterion met
 Total energy in the final basis set = -1101.5989813813
        MP2         total energy =     -1103.4140472150 au
    9   -1101.5989748672      5.84E-09 Convergence criterion met
 Total energy in the final basis set = -1101.5989748672
        MP2         total energy =     -1103.4140490755 au

             Standard Nuclear Orientation (Angstroms)
    I     Atom           X                Y                Z
 ----------------------------------------------------------------
    1      S       1.8184821333    -1.1897161843    -0.1170302140
    2      C       3.1683863690    -0.1472894638    -0.0403131808
    3      C       2.7833104138     1.1640566955     0.0815466904
    4      C       1.3882534801     1.3147061718     0.1187970141
    5      C       0.7084182221     0.1179027110     0.0252756259
    6      H       0.8837234742     2.2588398745     0.2238437191
    7      C      -0.7084182221    -0.1179027110     0.0252756259
    8      S      -1.8184821333     1.1897161843    -0.1170302140
    9      C      -1.3882534801    -1.3147061718     0.1187970141
   10      C      -3.1683863690     0.1472894638    -0.0403131808
   11      C      -2.7833104138    -1.1640566955     0.0815466904
   12      H      -3.4824364117    -1.9772627970     0.1448802013
   13      H       4.1613987218    -0.5474552051    -0.0886246572
   14      H       3.4824364117     1.9772627970     0.1448802013
   15      H      -4.1613987218     0.5474552051    -0.0886246572
   16      H      -0.8837234742    -2.2588398745     0.2238437191
 ----------------------------------------------------------------

    9   -1101.5989796880      3.58E-09 Convergence criterion met
 Total energy in the final basis set = -1101.5989796880
        MP2         total energy =     -1103.4140499088 au
 Final energy is   -1103.41404990882
 **  OPTIMIZATION CONVERGED  **

             Orbital Energies (a.u.) and Symmetries
 --------------------------------------------------------------

 Alpha MOs, Restricted
 -- Occupied --
-91.984 -91.984 -11.276 -11.275 -11.262 -11.262 -11.239 -11.239
  1 A     1 B     2 A     2 B     3 B     3 A     4 B     4 A
-11.237 -11.237  -8.986  -8.986  -6.667  -6.667  -6.667  -6.667
  5 A     5 B     6 A     6 B     7 B     7 A     8 A     8 B
 -6.666  -6.666  -1.197  -1.167  -1.037  -1.001  -0.984  -0.949
  9 B     9 A    10 A    10 B    11 A    11 B    12 A    12 B
 -0.811  -0.782  -0.744  -0.718  -0.708  -0.645  -0.573  -0.572
 13 A    13 B    14 A    14 B    15 A    15 B    16 A    16 B
 -0.557  -0.555  -0.551  -0.513  -0.513  -0.484  -0.465  -0.378
 17 A    17 B    18 A    19 A    18 B    19 B    20 A    21 A
 -0.356  -0.347  -0.277
 20 B    22 A    21 B

 Beta MOs, Restricted
 -- Occupied --
-91.984 -91.984 -11.276 -11.275 -11.262 -11.262 -11.239 -11.239
  1 A     1 B     2 A     2 B     3 B     3 A     4 B     4 A
-11.237 -11.237  -8.986  -8.986  -6.667  -6.667  -6.667  -6.667
  5 A     5 B     6 A     6 B     7 B     7 A     8 A     8 B
 -6.666  -6.666  -1.197  -1.167  -1.037  -1.001  -0.984  -0.949
  9 B     9 A    10 A    10 B    11 A    11 B    12 A    12 B
 -0.811  -0.782  -0.744  -0.718  -0.708  -0.645  -0.573  -0.572
 13 A    13 B    14 A    14 B    15 A    15 B    16 A    16 B
 -0.557  -0.555  -0.551  -0.513  -0.513  -0.484  -0.465  -0.378
 17 A    17 B    18 A    19 A    18 B    19 B    20 A    21 A
 -0.356  -0.347  -0.277
 20 B    22 A    21 B

          Ground-State Mulliken Net Atomic Charges

     Atom                 Charge (a.u.)
  ----------------------------------------
      1 S                     0.102754
      2 C                    -0.237872
      3 C                    -0.197865
      4 C                    -0.214488
      5 C                     0.025745
      6 H                     0.160837
      7 C                     0.025745
      8 S                     0.102754
      9 C                    -0.214488
     10 C                    -0.237872
     11 C                    -0.197865
     12 H                     0.175106
     13 H                     0.185784
     14 H                     0.175106
     15 H                     0.185784
     16 H                     0.160837
  ----------------------------------------
  Sum of atomic charges =    -0.000000

                    Cartesian Multipole Moments
 -----------------------------------------------------------------
    Charge (ESU x 10^10)
                -0.0000
    Dipole Moment (Debye)
         X      -0.0000      Y      -0.0000      Z       0.0819
       Tot       0.0819
    Quadrupole Moments (Debye-Ang)
        XX     -61.1466     XY       1.0038     YY     -67.8733
        XZ      -0.0000     YZ       0.0000     ZZ     -78.0411

 Total job time:  9014.89s(wall), 46455.03s(cpu)
        *  Thank you very much for using Q-Chem.  Have a nice day.  *
