 Q-Chem 4.4, Q-Chem, Inc., Pleasanton, CA (2016)
 Q-Chem 4.4.1 for Intel X86 EM64T Linux

User input:
--------------------------------------------------------------
$molecule
 0  1
 S           1.80900300       -1.15938900        0.25896800
 C           3.16466000       -0.14246800        0.05606700
 C           2.78757500        1.14089100       -0.25226100
 C           1.39402000        1.28822000       -0.33563400
 C           0.70898100        0.11689900       -0.08798100
 H           0.89277600        2.20524100       -0.58940400
 C          -0.70898100       -0.11689900       -0.08798100
 S          -1.75070734        0.80583155       -1.09927108
 C          -1.43692566       -1.02800136        0.64862770
 C          -3.13618297       -0.03024237       -0.55655503
 C          -2.81453148       -0.97740260        0.38349678
 H          -3.54539370       -1.61109834        0.85086454
 H           4.15569300       -0.53353100        0.17259300
 H           3.49202900        1.93475000       -0.41867900
 H          -4.10294143        0.21359791       -0.94971529
 H          -0.97350861       -1.71560560        1.33347610
$end

$rem
         jobtype = opt
        exchange = hf
           basis = cc-pvtz
  max_scf_cycles = 100
      mem_static = 6200
       mem_total = 62000
          method = mp2
$end

$opt
CONSTRAINT
tors 4 5 7 9 -150.0
ENDCONSTRAINT
$end

--------------------------------------------------------------

   16   -1101.5988227085      6.05E-09 Convergence criterion met
 Total energy in the final basis set = -1101.5988227085
        MP2         total energy =     -1103.4137069574 au
   11   -1101.5992972916      4.39E-09 Convergence criterion met
 Total energy in the final basis set = -1101.5992972916
        MP2         total energy =     -1103.4141634920 au
   10   -1101.5993204513      3.78E-09 Convergence criterion met
 Total energy in the final basis set = -1101.5993204513
        MP2         total energy =     -1103.4142028054 au
    8   -1101.5993217996      9.81E-09 Convergence criterion met
 Total energy in the final basis set = -1101.5993217996
        MP2         total energy =     -1103.4142124287 au
    8   -1101.5993182211      4.43E-09 Convergence criterion met
 Total energy in the final basis set = -1101.5993182211
        MP2         total energy =     -1103.4142134994 au

             Standard Nuclear Orientation (Angstroms)
    I     Atom           X                Y                Z
 ----------------------------------------------------------------
    1      S       1.8026299921    -1.1591459792    -0.3098250040
    2      C       3.1636035578    -0.1549099161    -0.0818039703
    3      C       2.7933226803     1.1224003713     0.2586191156
    4      C       1.4005538470     1.2749242992     0.3464246370
    5      C       0.7096095364     0.1139679657     0.0686415285
    6      H       0.9036528556     2.1871806377     0.6245684352
    7      C      -0.7096095364    -0.1139679657     0.0686415285
    8      S      -1.8026299921     1.1591459792    -0.3098250040
    9      C      -1.4005538470    -1.2749242992     0.3464246370
   10      C      -3.1636035578     0.1549099161    -0.0818039703
   11      C      -2.7933226803    -1.1224003713     0.2586191156
   12      H      -3.5020849265    -1.9078809210     0.4452956545
   13      H       4.1526596055    -0.5478841701    -0.2083762649
   14      H       3.5020849265     1.9078809210     0.4452956545
   15      H      -4.1526596055     0.5478841701    -0.2083762649
   16      H      -0.9036528556    -2.1871806377     0.6245684352
 ----------------------------------------------------------------

    8   -1101.5993202763      3.32E-09 Convergence criterion met
 Total energy in the final basis set = -1101.5993202763
        MP2         total energy =     -1103.4142138978 au
 Final energy is   -1103.41421389779
 **  OPTIMIZATION CONVERGED  **

             Orbital Energies (a.u.) and Symmetries
 --------------------------------------------------------------

 Alpha MOs, Restricted
 -- Occupied --
-91.985 -91.985 -11.275 -11.274 -11.261 -11.261 -11.238 -11.238
  1 A     1 B     2 A     2 B     3 B     3 A     4 B     4 A
-11.237 -11.237  -8.986  -8.986  -6.667  -6.667  -6.667  -6.667
  5 B     5 A     6 A     6 B     7 B     7 A     8 A     8 B
 -6.666  -6.666  -1.197  -1.167  -1.036  -0.999  -0.985  -0.948
  9 B     9 A    10 A    10 B    11 A    11 B    12 A    12 B
 -0.810  -0.779  -0.746  -0.718  -0.707  -0.645  -0.572  -0.572
 13 A    13 B    14 A    14 B    15 A    15 B    16 A    16 B
 -0.559  -0.555  -0.547  -0.513  -0.512  -0.483  -0.468  -0.371
 17 A    17 B    18 A    18 B    19 A    19 B    20 A    21 A
 -0.353  -0.349  -0.282
 20 B    22 A    21 B

 Beta MOs, Restricted
 -- Occupied --
-91.985 -91.985 -11.275 -11.274 -11.261 -11.261 -11.238 -11.238
  1 A     1 B     2 A     2 B     3 B     3 A     4 B     4 A
-11.237 -11.237  -8.986  -8.986  -6.667  -6.667  -6.667  -6.667
  5 B     5 A     6 A     6 B     7 B     7 A     8 A     8 B
 -6.666  -6.666  -1.197  -1.167  -1.036  -0.999  -0.985  -0.948
  9 B     9 A    10 A    10 B    11 A    11 B    12 A    12 B
 -0.810  -0.779  -0.746  -0.718  -0.707  -0.645  -0.572  -0.572
 13 A    13 B    14 A    14 B    15 A    15 B    16 A    16 B
 -0.559  -0.555  -0.547  -0.513  -0.512  -0.483  -0.468  -0.371
 17 A    17 B    18 A    18 B    19 A    19 B    20 A    21 A
 -0.353  -0.349  -0.282
 20 B    22 A    21 B

          Ground-State Mulliken Net Atomic Charges

     Atom                 Charge (a.u.)
  ----------------------------------------
      1 S                     0.111873
      2 C                    -0.237866
      3 C                    -0.194789
      4 C                    -0.218308
      5 C                     0.012178
      6 H                     0.167562
      7 C                     0.012178
      8 S                     0.111873
      9 C                    -0.218308
     10 C                    -0.237866
     11 C                    -0.194789
     12 H                     0.174579
     13 H                     0.184771
     14 H                     0.174579
     15 H                     0.184771
     16 H                     0.167562
  ----------------------------------------
  Sum of atomic charges =    -0.000000

                    Cartesian Multipole Moments
 -----------------------------------------------------------------
    Charge (ESU x 10^10)
                -0.0000
    Dipole Moment (Debye)
         X      -0.0000      Y      -0.0000      Z       0.2379
       Tot       0.2379
    Quadrupole Moments (Debye-Ang)
        XX     -61.1889     XY       0.9135     YY     -68.5105
        XZ       0.0000     YZ      -0.0000     ZZ     -77.3651

 Total job time:  8958.01s(wall), 45856.62s(cpu)
        *  Thank you very much for using Q-Chem.  Have a nice day.  *
