 Q-Chem 4.4, Q-Chem, Inc., Pleasanton, CA (2016)
 Q-Chem 4.4.1 for Intel X86 EM64T Linux

User input:
--------------------------------------------------------------
$molecule
 0  1
 S           1.80900300       -1.15938900        0.25896800
 C           3.16466000       -0.14246800        0.05606700
 C           2.78757500        1.14089100       -0.25226100
 C           1.39402000        1.28822000       -0.33563400
 C           0.70898100        0.11689900       -0.08798100
 H           0.89277600        2.20524100       -0.58940400
 C          -0.70898100       -0.11689900       -0.08798100
 S          -1.78970999        1.04237877        0.58092331
 C          -1.40786860       -1.20422959       -0.56951150
 C          -3.15639488        0.09234085        0.20316228
 C          -2.79667166       -1.08572068       -0.40267584
 H          -3.51028706       -1.82401665       -0.71864198
 H           4.15569300       -0.53353100        0.17259300
 H           3.49202900        1.93475000       -0.41867900
 H          -4.14066802        0.44240598        0.44256939
 H          -0.92044905       -2.03740667       -1.04365326
$end

$rem
         jobtype = opt
        exchange = hf
           basis = cc-pvtz
  max_scf_cycles = 100
      mem_static = 6200
       mem_total = 62000
          method = mp2
$end

$opt
CONSTRAINT
tors 4 5 7 9 140.0
ENDCONSTRAINT
$end

--------------------------------------------------------------

   16   -1101.5989128050      6.12E-09 Convergence criterion met
 Total energy in the final basis set = -1101.5989128050
        MP2         total energy =     -1103.4137188882 au
   10   -1101.5991874989      5.65E-09 Convergence criterion met
 Total energy in the final basis set = -1101.5991874989
        MP2         total energy =     -1103.4139555759 au
   11   -1101.5992059798      3.28E-09 Convergence criterion met
 Total energy in the final basis set = -1101.5992059798
        MP2         total energy =     -1103.4139720600 au
   10   -1101.5991949367      4.12E-09 Convergence criterion met
 Total energy in the final basis set = -1101.5991949367
        MP2         total energy =     -1103.4139753187 au

             Standard Nuclear Orientation (Angstroms)
    I     Atom           X                Y                Z
 ----------------------------------------------------------------
    1      S       1.7924314533    -1.1390740459     0.3799958489
    2      C       3.1615498426    -0.1665850896     0.0786929487
    3      C       2.8020715348     1.0843742930    -0.3587277759
    4      C       1.4106287743     1.2409841319    -0.4609170642
    5      C       0.7108538861     0.1108701609    -0.0937526943
    6      H       0.9197138478     2.1319373064    -0.8093455015
    7      C      -0.7108538861    -0.1108701609    -0.0937526943
    8      S      -1.7924314533     1.1390740459     0.3799958489
    9      C      -1.4106287743    -1.2409841319    -0.4609170642
   10      C      -3.1615498426     0.1665850896     0.0786929487
   11      C      -2.8020715348    -1.0843742930    -0.3587277759
   12      H      -3.5177646920    -1.8470991556    -0.6041787165
   13      H       4.1477521038    -0.5557720096     0.2358356207
   14      H       3.5177646920     1.8470991556    -0.6041787165
   15      H      -4.1477521038     0.5557720096     0.2358356207
   16      H      -0.9197138478    -2.1319373064    -0.8093455015
 ----------------------------------------------------------------

    9   -1101.5991784225      5.75E-09 Convergence criterion met
 Total energy in the final basis set = -1101.5991784225
        MP2         total energy =     -1103.4139763408 au
 Final energy is   -1103.41397634083
 **  OPTIMIZATION CONVERGED  **

             Orbital Energies (a.u.) and Symmetries
 --------------------------------------------------------------

 Alpha MOs, Restricted
 -- Occupied --
-91.985 -91.985 -11.275 -11.274 -11.261 -11.261 -11.238 -11.238
  1 A     1 B     2 A     2 B     3 B     3 A     4 A     4 B
-11.237 -11.237  -8.986  -8.986  -6.667  -6.667  -6.667  -6.667
  5 B     5 A     6 A     6 B     7 B     7 A     8 A     8 B
 -6.666  -6.666  -1.196  -1.167  -1.035  -0.998  -0.986  -0.948
  9 B     9 A    10 A    10 B    11 A    11 B    12 A    12 B
 -0.809  -0.778  -0.748  -0.718  -0.706  -0.645  -0.572  -0.571
 13 A    13 B    14 A    14 B    15 A    15 B    16 A    16 B
 -0.559  -0.555  -0.545  -0.513  -0.512  -0.482  -0.469  -0.366
 17 A    17 B    18 A    18 B    19 A    19 B    20 A    21 A
 -0.351  -0.350  -0.286
 20 B    22 A    21 B

 Beta MOs, Restricted
 -- Occupied --
-91.985 -91.985 -11.275 -11.274 -11.261 -11.261 -11.238 -11.238
  1 A     1 B     2 A     2 B     3 B     3 A     4 A     4 B
-11.237 -11.237  -8.986  -8.986  -6.667  -6.667  -6.667  -6.667
  5 B     5 A     6 A     6 B     7 B     7 A     8 A     8 B
 -6.666  -6.666  -1.196  -1.167  -1.035  -0.998  -0.986  -0.948
  9 B     9 A    10 A    10 B    11 A    11 B    12 A    12 B
 -0.809  -0.778  -0.748  -0.718  -0.706  -0.645  -0.572  -0.571
 13 A    13 B    14 A    14 B    15 A    15 B    16 A    16 B
 -0.559  -0.555  -0.545  -0.513  -0.512  -0.482  -0.469  -0.366
 17 A    17 B    18 A    18 B    19 A    19 B    20 A    21 A
 -0.351  -0.350  -0.286
 20 B    22 A    21 B

          Ground-State Mulliken Net Atomic Charges

     Atom                 Charge (a.u.)
  ----------------------------------------
      1 S                     0.116053
      2 C                    -0.237690
      3 C                    -0.194236
      4 C                    -0.216093
      5 C                     0.001644
      6 H                     0.171457
      7 C                     0.001644
      8 S                     0.116053
      9 C                    -0.216093
     10 C                    -0.237690
     11 C                    -0.194237
     12 H                     0.174353
     13 H                     0.184512
     14 H                     0.174353
     15 H                     0.184512
     16 H                     0.171457
  ----------------------------------------
  Sum of atomic charges =    -0.000000

                    Cartesian Multipole Moments
 -----------------------------------------------------------------
    Charge (ESU x 10^10)
                 0.0000
    Dipole Moment (Debye)
         X      -0.0000      Y       0.0000      Z      -0.3138
       Tot       0.3138
    Quadrupole Moments (Debye-Ang)
        XX     -61.2219     XY       0.8317     YY     -68.9673
        XZ      -0.0000     YZ       0.0000     ZZ     -76.8665

 Total job time:  7275.50s(wall), 38500.38s(cpu)
        *  Thank you very much for using Q-Chem.  Have a nice day.  *
