 Q-Chem 4.4, Q-Chem, Inc., Pleasanton, CA (2016)
 Q-Chem 4.4.1 for Intel X86 EM64T Linux

User input:
--------------------------------------------------------------
$molecule
 0  1
 S           1.80900300       -1.15938900        0.25896800
 C           3.16466000       -0.14246800        0.05606700
 C           2.78757500        1.14089100       -0.25226100
 C           1.39402000        1.28822000       -0.33563400
 C           0.70898100        0.11689900       -0.08798100
 H           0.89277600        2.20524100       -0.58940400
 C          -0.70898100       -0.11689900       -0.08798100
 S          -1.73954339        0.73812324        0.99193159
 C          -1.44407232       -0.98465760       -0.86851870
 C          -3.13426308       -0.04188633        0.39239421
 C          -2.82022833       -0.94285175       -0.59447613
 H          -3.55743277       -1.53808251       -1.10082823
 H           4.15569300       -0.53353100        0.17259300
 H           3.49202900        1.93475000       -0.41867900
 H          -4.10025527        0.19730660        0.79026456
 H          -0.99187855       -1.60419374       -1.62235425
$end

$rem
         jobtype = opt
        exchange = hf
           basis = cc-pvtz
  max_scf_cycles = 100
      mem_static = 6200
       mem_total = 62000
          method = mp2
$end

$opt
CONSTRAINT
tors 4 5 7 9 120.0
ENDCONSTRAINT
$end

--------------------------------------------------------------

   16   -1101.5974937431      6.47E-09 Convergence criterion met
 Total energy in the final basis set = -1101.5974937431
        MP2         total energy =     -1103.4123167481 au
   10   -1101.5980260284      8.49E-09 Convergence criterion met
 Total energy in the final basis set = -1101.5980260284
        MP2         total energy =     -1103.4125930460 au
   11   -1101.5981285872      5.71E-09 Convergence criterion met
 Total energy in the final basis set = -1101.5981285872
        MP2         total energy =     -1103.4126608010 au
   11   -1101.5981233253      5.25E-09 Convergence criterion met
 Total energy in the final basis set = -1101.5981233253
        MP2         total energy =     -1103.4126930985 au
   10   -1101.5980376501      8.24E-09 Convergence criterion met
 Total energy in the final basis set = -1101.5980376501
        MP2         total energy =     -1103.4127029303 au
    9   -1101.5980194387      4.48E-09 Convergence criterion met
 Total energy in the final basis set = -1101.5980194387
        MP2         total energy =     -1103.4127044140 au

             Standard Nuclear Orientation (Angstroms)
    I     Atom           X                Y                Z
 ----------------------------------------------------------------
    1      S       1.7716479563    -1.0784733785     0.5390157527
    2      C       3.1583101862    -0.1866248801     0.1042525897
    3      C       2.8227414838     0.9873272416    -0.5249888714
    4      C       1.4345776850     1.1487545150    -0.6606344372
    5      C       0.7141163502     0.1036781708    -0.1232835031
    6      H       0.9590417668     1.9843541628    -1.1417870021
    7      C      -0.7141163502    -0.1036781708    -0.1232835031
    8      S      -1.7716479563     1.0784733785     0.5390157527
    9      C      -1.4345776850    -1.1487545150    -0.6606344372
   10      C      -3.1583101862     0.1866248801     0.1042525897
   11      C      -2.8227414838    -0.9873272416    -0.5249888714
   12      H      -3.5528247634    -1.6909077834    -0.8802303221
   13      H       4.1373107442    -0.5607005445     0.3290275499
   14      H       3.5528247634     1.6909077834    -0.8802303221
   15      H      -4.1373107442     0.5607005445     0.3290275499
   16      H      -0.9590417668    -1.9843541628    -1.1417870021
 ----------------------------------------------------------------

    7   -1101.5980186773      8.92E-09 Convergence criterion met
 Total energy in the final basis set = -1101.5980186773
        MP2         total energy =     -1103.4127046908 au
 Final energy is   -1103.41270469080
 **  OPTIMIZATION CONVERGED  **

             Orbital Energies (a.u.) and Symmetries
 --------------------------------------------------------------

 Alpha MOs, Restricted
 -- Occupied --
-91.984 -91.984 -11.273 -11.272 -11.261 -11.261 -11.238 -11.238
  1 A     1 B     2 A     2 B     3 B     3 A     4 A     4 B
-11.237 -11.237  -8.986  -8.986  -6.667  -6.667  -6.666  -6.666
  5 B     5 A     6 B     6 A     7 B     7 A     8 A     8 B
 -6.666  -6.666  -1.195  -1.166  -1.034  -0.996  -0.987  -0.948
  9 B     9 A    10 A    10 B    11 A    11 B    12 A    12 B
 -0.807  -0.773  -0.752  -0.718  -0.704  -0.645  -0.571  -0.570
 13 A    13 B    14 A    14 B    15 A    15 B    16 A    16 B
 -0.561  -0.555  -0.542  -0.513  -0.511  -0.480  -0.471  -0.355
 17 A    17 B    18 A    18 B    19 A    19 B    20 A    21 A
 -0.350  -0.347  -0.296
 22 A    20 B    21 B

 Beta MOs, Restricted
 -- Occupied --
-91.984 -91.984 -11.273 -11.272 -11.261 -11.261 -11.238 -11.238
  1 A     1 B     2 A     2 B     3 B     3 A     4 A     4 B
-11.237 -11.237  -8.986  -8.986  -6.667  -6.667  -6.666  -6.666
  5 B     5 A     6 B     6 A     7 B     7 A     8 A     8 B
 -6.666  -6.666  -1.195  -1.166  -1.034  -0.996  -0.987  -0.948
  9 B     9 A    10 A    10 B    11 A    11 B    12 A    12 B
 -0.807  -0.773  -0.752  -0.718  -0.704  -0.645  -0.571  -0.570
 13 A    13 B    14 A    14 B    15 A    15 B    16 A    16 B
 -0.561  -0.555  -0.542  -0.513  -0.511  -0.480  -0.471  -0.355
 17 A    17 B    18 A    18 B    19 A    19 B    20 A    21 A
 -0.350  -0.347  -0.296
 22 A    20 B    21 B

          Ground-State Mulliken Net Atomic Charges

     Atom                 Charge (a.u.)
  ----------------------------------------
      1 S                     0.124196
      2 C                    -0.238193
      3 C                    -0.193077
      4 C                    -0.205012
      5 C                    -0.023081
      6 H                     0.176669
      7 C                    -0.023081
      8 S                     0.124196
      9 C                    -0.205012
     10 C                    -0.238193
     11 C                    -0.193077
     12 H                     0.174209
     13 H                     0.184289
     14 H                     0.174209
     15 H                     0.184289
     16 H                     0.176669
  ----------------------------------------
  Sum of atomic charges =    -0.000000

                    Cartesian Multipole Moments
 -----------------------------------------------------------------
    Charge (ESU x 10^10)
                -0.0000
    Dipole Moment (Debye)
         X      -0.0000      Y       0.0000      Z      -0.4406
       Tot       0.4406
    Quadrupole Moments (Debye-Ang)
        XX     -61.2981     XY       0.6995     YY     -70.1199
        XZ      -0.0000     YZ       0.0000     ZZ     -75.5989

 Total job time:  10501.22s(wall), 54496.48s(cpu)
        *  Thank you very much for using Q-Chem.  Have a nice day.  *
