 Q-Chem 4.4, Q-Chem, Inc., Pleasanton, CA (2016)
 Q-Chem 4.4.2 for Intel X86 EM64T Linux

User input:
--------------------------------------------------------------
$molecule
 0  1
 H           6.23254100       -0.22338900        0.17638100
 H           5.29752400        2.22850500       -0.10953100
 C           5.19733500        0.07486000        0.08356300
 C           4.68347900        1.33634400       -0.06443600
 S           3.94559900       -1.12581000        0.11905200
 C           3.26267300        1.34659400       -0.16511200
 H           2.67740100        2.24810800       -0.30841700
 C           2.69562400        0.08941900       -0.09094600
 H           1.33241900       -2.39005500       -0.68762600
 C           1.29739300       -0.28590200       -0.16150800
 C           0.73808300       -1.51455700       -0.45078400
 S           0.03601800        0.89451200        0.14982500
 C          -0.68041100       -1.51067300       -0.44936800
 H          -1.28012400       -2.38277100       -0.68510300
 C          -1.23220500       -0.27900200       -0.15852500
 C          -2.62830100        0.10383400       -0.08465000
 H          -3.11604390        0.72501637       -2.10547337
 C          -3.45115884        0.58599737       -1.08362032
 S          -3.51537895       -0.01049359        1.42635717
 C          -4.78056429        0.85160125       -0.64641386
 C          -4.97013868        0.57083514        0.68118749
 H          -5.56463779        1.22675432       -1.29412571
 H          -5.87283474        0.67158648        1.26787842
$end

$rem
         jobtype = opt
        exchange = b3lyp
           basis = 6-31++g**
  max_scf_cycles = 150
      mem_static = 281
       mem_total = 2818
      sym_ignore = true
        symmetry = false
          thresh = 12
$end

$opt
CONSTRAINT
tors 13 15 16 18 -90.0
ENDCONSTRAINT
$end

--------------------------------------------------------------

   15   -1656.6599357764      7.29E-09 Convergence criterion met
 Total energy in the final basis set = -1656.6599357764
   11   -1656.6602605562      6.26E-09 Convergence criterion met
 Total energy in the final basis set = -1656.6602605562
   11   -1656.6602873386      3.60E-09 Convergence criterion met
 Total energy in the final basis set = -1656.6602873386
   10   -1656.6602913981      3.58E-09 Convergence criterion met
 Total energy in the final basis set = -1656.6602913981

             Standard Nuclear Orientation (Angstroms)
    I     Atom           X                Y                Z
 ----------------------------------------------------------------
    1      H       6.2365738226    -0.2342062734     0.1811536646
    2      H       5.3125806088     2.2216470527    -0.1074729676
    3      C       5.2028395813     0.0683418065     0.0855322992
    4      C       4.6949034841     1.3319278196    -0.0640928502
    5      S       3.9459205072    -1.1265338384     0.1185523636
    6      C       3.2739679742     1.3477120328    -0.1676933515
    7      H       2.6923990599     2.2516679879    -0.3108672905
    8      C       2.7022491262     0.0936913890    -0.0940262725
    9      H       1.3376463618    -2.3798951224    -0.6992224322
   10      C       1.2996440121    -0.2764574995    -0.1674157757
   11      C       0.7427437643    -1.5047567201    -0.4623970237
   12      S       0.0409093596     0.9027001636     0.1381815249
   13      C      -0.6792338816    -1.5013351556    -0.4513351567
   14      H      -1.2886809204    -2.3723670159    -0.6641670510
   15      C      -1.2272825806    -0.2748665610    -0.1568560767
   16      C      -2.6425722308     0.1016591837    -0.0773368304
   17      H      -3.1030844904     0.7283010700    -2.0910253992
   18      C      -3.4585535643     0.5766555522    -1.0780085545
   19      S      -3.5353880322    -0.0166815610     1.4298380873
   20      C      -4.7935298484     0.8397635892    -0.6481695134
   21      C      -4.9838632956     0.5670221934     0.6816813109
   22      H      -5.5753953706     1.2149586372    -1.2986255448
   23      H      -5.8905026371     0.6723656094     1.2623776597
 ----------------------------------------------------------------

    9   -1656.6602925128      9.05E-09 Convergence criterion met
 Total energy in the final basis set = -1656.6602925128
 Final energy is   -1656.66029251282
 **  OPTIMIZATION CONVERGED  **

                    Orbital Energies (a.u.)
 --------------------------------------------------------------

 Alpha MOs
 -- Occupied --
-88.921 -88.921 -88.920 -10.241 -10.240 -10.237 -10.237 -10.226
-10.226 -10.206 -10.206 -10.205 -10.205 -10.205 -10.204  -7.981
 -7.979  -7.979  -5.945  -5.944  -5.944  -5.941  -5.940  -5.940
 -5.938  -5.937  -5.937  -0.905  -0.891  -0.876  -0.785  -0.753
 -0.744  -0.743  -0.733  -0.697  -0.615  -0.593  -0.568  -0.563
 -0.537  -0.534  -0.527  -0.500  -0.463  -0.421  -0.418  -0.416
 -0.416  -0.406  -0.404  -0.399  -0.383  -0.375  -0.370  -0.358
 -0.351  -0.345  -0.280  -0.267  -0.262  -0.258  -0.244  -0.214

          Ground-State Mulliken Net Atomic Charges

     Atom                 Charge (a.u.)
  ----------------------------------------
      1 H                     0.196674
      2 H                     0.119414
      3 C                     0.033585
      4 C                    -0.396987
      5 S                    -0.129068
      6 C                     0.535142
      7 H                     0.126642
      8 C                    -0.423422
      9 H                     0.124243
     10 C                    -0.036787
     11 C                    -0.141688
     12 S                    -0.046420
     13 C                     0.183089
     14 H                     0.124335
     15 C                    -0.336417
     16 C                    -0.484433
     17 H                     0.137005
     18 C                     0.393062
     19 S                     0.061310
     20 C                    -0.364919
     21 C                     0.009102
     22 H                     0.121719
     23 H                     0.194821
  ----------------------------------------
  Sum of atomic charges =     0.000000

                    Cartesian Multipole Moments
 -----------------------------------------------------------------
    Charge (ESU x 10^10)
                 0.0000
    Dipole Moment (Debye)
         X      -0.0952      Y       0.2051      Z      -0.7139
       Tot       0.7489
    Quadrupole Moments (Debye-Ang)
        XX     -90.1494     XY      -0.2219     YY    -105.3466
        XZ       0.9552     YZ      -0.3250     ZZ    -111.2233

 Total job time:  81.03s(wall), 85.56s(cpu)
        *  Thank you very much for using Q-Chem.  Have a nice day.  *
