 Q-Chem 4.4, Q-Chem, Inc., Pleasanton, CA (2016)
 Q-Chem 4.4.2 for Intel X86 EM64T Linux

User input:
--------------------------------------------------------------
$molecule
 0  1
 H           6.23254100       -0.22338900        0.17638100
 H           5.29752400        2.22850500       -0.10953100
 C           5.19733500        0.07486000        0.08356300
 C           4.68347900        1.33634400       -0.06443600
 S           3.94559900       -1.12581000        0.11905200
 C           3.26267300        1.34659400       -0.16511200
 H           2.67740100        2.24810800       -0.30841700
 C           2.69562400        0.08941900       -0.09094600
 H           1.33241900       -2.39005500       -0.68762600
 C           1.29739300       -0.28590200       -0.16150800
 C           0.73808300       -1.51455700       -0.45078400
 S           0.03601800        0.89451200        0.14982500
 C          -0.68041100       -1.51067300       -0.44936800
 H          -1.28012400       -2.38277100       -0.68510300
 C          -1.23220500       -0.27900200       -0.15852500
 C          -2.62830100        0.10383400       -0.08465000
 H          -2.69134036        2.06323260       -1.01431174
 C          -3.23525026        1.26492175       -0.52169242
 S          -3.81873150       -0.96483696        0.63918585
 C          -4.64018444        1.29449448       -0.28867066
 C          -5.10218990        0.15851691        0.32239344
 H          -5.28103227        2.12161892       -0.57190367
 H          -6.11576467       -0.08698911        0.60806847
$end

$rem
         jobtype = opt
        exchange = b3lyp
           basis = 6-31++g**
  max_scf_cycles = 150
      mem_static = 281
       mem_total = 2818
      sym_ignore = true
        symmetry = false
          thresh = 12
$end

$opt
CONSTRAINT
tors 13 15 16 18 -140.0
ENDCONSTRAINT
$end

--------------------------------------------------------------

   15   -1656.6637827173      5.48E-09 Convergence criterion met
 Total energy in the final basis set = -1656.6637827173
   11   -1656.6638362773      6.83E-09 Convergence criterion met
 Total energy in the final basis set = -1656.6638362773
   11   -1656.6638630861      8.58E-09 Convergence criterion met
 Total energy in the final basis set = -1656.6638630861
   11   -1656.6638713191      4.66E-09 Convergence criterion met
 Total energy in the final basis set = -1656.6638713191

             Standard Nuclear Orientation (Angstroms)
    I     Atom           X                Y                Z
 ----------------------------------------------------------------
    1      H       6.2357346696    -0.2220269313     0.1365533769
    2      H       5.2976005231     2.2295844398    -0.1424697812
    3      C       5.1995672695     0.0761953286     0.0549397861
    4      C       4.6841957350     1.3374283986    -0.0892696565
    5      S       3.9481472635    -1.1242502254     0.1067504571
    6      C       3.2621632344     1.3474910316    -0.1736164625
    7      H       2.6753500386     2.2490201989    -0.3105120286
    8      C       2.6961830834     0.0906709196    -0.0912550370
    9      H       1.3289863469    -2.3885101961    -0.6729193022
   10      C       1.2962837547    -0.2847749092    -0.1441917292
   11      C       0.7357907315    -1.5149579901    -0.4260712903
   12      S       0.0376190677     0.8929456286     0.1818624546
   13      C      -0.6836252568    -1.5130204338    -0.4091027630
   14      H      -1.2894301784    -2.3807368190    -0.6448198762
   15      C      -1.2307388706    -0.2831694475    -0.1081214856
   16      C      -2.6287122014     0.1089277095    -0.0494568120
   17      H      -2.6579317646     2.0874505248    -0.9315137007
   18      C      -3.2207070858     1.2795244997    -0.4774985448
   19      S      -3.8402741901    -0.9853973004     0.5937572833
   20      C      -4.6341994501     1.2985746153    -0.2958686506
   21      C      -5.1149004831     0.1424157918     0.2616558508
   22      H      -5.2676622236     2.1310418477    -0.5802823137
   23      H      -6.1388854133    -0.1134510915     0.4973344954
 ----------------------------------------------------------------

   10   -1656.6638747891      7.75E-09 Convergence criterion met
 Total energy in the final basis set = -1656.6638747891
 Final energy is   -1656.66387478911
 **  OPTIMIZATION CONVERGED  **

                    Orbital Energies (a.u.)
 --------------------------------------------------------------

 Alpha MOs
 -- Occupied --
-88.922 -88.921 -88.921 -10.241 -10.241 -10.241 -10.240 -10.226
-10.226 -10.206 -10.206 -10.206 -10.206 -10.205 -10.205  -7.981
 -7.981  -7.981  -5.945  -5.945  -5.945  -5.942  -5.941  -5.941
 -5.938  -5.938  -5.938  -0.907  -0.892  -0.876  -0.787  -0.756
 -0.745  -0.745  -0.733  -0.698  -0.617  -0.596  -0.570  -0.560
 -0.537  -0.535  -0.529  -0.501  -0.462  -0.422  -0.422  -0.417
 -0.415  -0.408  -0.402  -0.399  -0.387  -0.377  -0.370  -0.360
 -0.351  -0.344  -0.291  -0.266  -0.263  -0.261  -0.250  -0.204

          Ground-State Mulliken Net Atomic Charges

     Atom                 Charge (a.u.)
  ----------------------------------------
      1 H                     0.195906
      2 H                     0.119143
      3 C                     0.023496
      4 C                    -0.379915
      5 S                    -0.101451
      6 C                     0.452559
      7 H                     0.125160
      8 C                    -0.296292
      9 H                     0.123762
     10 C                    -0.202586
     11 C                    -0.042488
     12 S                    -0.149342
     13 C                     0.120952
     14 H                     0.131458
     15 C                    -0.206449
     16 C                    -0.317559
     17 H                     0.139913
     18 C                     0.394878
     19 S                    -0.013209
     20 C                    -0.465117
     21 C                     0.037229
     22 H                     0.116380
     23 H                     0.193571
  ----------------------------------------
  Sum of atomic charges =     0.000000

                    Cartesian Multipole Moments
 -----------------------------------------------------------------
    Charge (ESU x 10^10)
                 0.0000
    Dipole Moment (Debye)
         X      -0.0234      Y       0.5114      Z      -0.5323
       Tot       0.7385
    Quadrupole Moments (Debye-Ang)
        XX     -90.4292     XY       0.0407     YY    -101.6361
        XZ       0.1564     YZ      -1.1411     ZZ    -115.4922

 Total job time:  83.84s(wall), 88.25s(cpu)
        *  Thank you very much for using Q-Chem.  Have a nice day.  *
