 Q-Chem 4.4, Q-Chem, Inc., Pleasanton, CA (2016)
 Q-Chem 4.4.2 for Intel X86 EM64T Linux

User input:
--------------------------------------------------------------
$molecule
 0  1
 H           6.23254100       -0.22338900        0.17638100
 H           5.29752400        2.22850500       -0.10953100
 C           5.19733500        0.07486000        0.08356300
 C           4.68347900        1.33634400       -0.06443600
 S           3.94559900       -1.12581000        0.11905200
 C           3.26267300        1.34659400       -0.16511200
 H           2.67740100        2.24810800       -0.30841700
 C           2.69562400        0.08941900       -0.09094600
 H           1.33241900       -2.39005500       -0.68762600
 C           1.29739300       -0.28590200       -0.16150800
 C           0.73808300       -1.51455700       -0.45078400
 S           0.03601800        0.89451200        0.14982500
 C          -0.68041100       -1.51067300       -0.44936800
 H          -1.28012400       -2.38277100       -0.68510300
 C          -1.23220500       -0.27900200       -0.15852500
 C          -2.62830100        0.10383400       -0.08465000
 H          -2.63817259        2.19163712       -0.67496219
 C          -3.20842473        1.32923500       -0.34802633
 S          -3.85648758       -1.05551040        0.39555727
 C          -4.62252794        1.33732812       -0.17696974
 C          -5.11816961        0.12120452        0.21376818
 H          -5.24534675        2.20822365       -0.34631979
 H          -6.14516907       -0.15566493        0.40827442
$end

$rem
         jobtype = opt
        exchange = b3lyp
           basis = 6-31++g**
  max_scf_cycles = 150
      mem_static = 281
       mem_total = 2818
      sym_ignore = true
        symmetry = false
          thresh = 12
$end

$opt
CONSTRAINT
tors 13 15 16 18 -150.0
ENDCONSTRAINT
$end

--------------------------------------------------------------

   15   -1656.6642560438      3.66E-09 Convergence criterion met
 Total energy in the final basis set = -1656.6642560438
   10   -1656.6642712691      9.58E-09 Convergence criterion met
 Total energy in the final basis set = -1656.6642712691
   11   -1656.6642795261      5.30E-09 Convergence criterion met
 Total energy in the final basis set = -1656.6642795261
   10   -1656.6642815855      5.15E-09 Convergence criterion met
 Total energy in the final basis set = -1656.6642815855

             Standard Nuclear Orientation (Angstroms)
    I     Atom           X                Y                Z
 ----------------------------------------------------------------
    1      H       6.2347137986    -0.2225740992     0.1522728161
    2      H       5.2976573277     2.2289278685    -0.1308098046
    3      C       5.1988557884     0.0756178038     0.0667448517
    4      C       4.6839867913     1.3368422851    -0.0795282763
    5      S       3.9472925849    -1.1248987725     0.1138051836
    6      C       3.2623577003     1.3469593748    -0.1694568212
    7      H       2.6761067414     2.2483291936    -0.3096859837
    8      C       2.6959428050     0.0900375213    -0.0891741731
    9      H       1.3306785821    -2.3887641900    -0.6793564999
   10      C       1.2968759796    -0.2855309203    -0.1491172727
   11      C       0.7369107981    -1.5147249820    -0.4357298553
   12      S       0.0368833481     0.8928628553     0.1724933588
   13      C      -0.6819545244    -1.5118426624    -0.4266343043
   14      H      -1.2846025175    -2.3809312152    -0.6656655648
   15      C      -1.2314456272    -0.2811855436    -0.1295353742
   16      C      -2.6281473577     0.1057845144    -0.0638234796
   17      H      -2.6247938868     2.1997631004    -0.6266486422
   18      C      -3.2025123460     1.3346670524    -0.3209698056
   19      S      -3.8647290764    -1.0628563387     0.3684356152
   20      C      -4.6204774324     1.3386246864    -0.1808681163
   21      C      -5.1234081396     0.1150784720     0.1767602050
   22      H      -5.2407039621     2.2112413539    -0.3513059295
   23      H      -6.1547376455    -0.1649572780     0.3419346926
 ----------------------------------------------------------------

   10   -1656.6642825196      3.79E-09 Convergence criterion met
 Total energy in the final basis set = -1656.6642825196
 Final energy is   -1656.66428251957
 **  OPTIMIZATION CONVERGED  **

                    Orbital Energies (a.u.)
 --------------------------------------------------------------

 Alpha MOs
 -- Occupied --
-88.922 -88.921 -88.921 -10.241 -10.241 -10.241 -10.240 -10.226
-10.226 -10.207 -10.206 -10.206 -10.206 -10.205 -10.205  -7.981
 -7.981  -7.981  -5.945  -5.945  -5.945  -5.942  -5.941  -5.941
 -5.938  -5.938  -5.938  -0.907  -0.892  -0.876  -0.787  -0.757
 -0.745  -0.745  -0.733  -0.698  -0.618  -0.597  -0.570  -0.560
 -0.536  -0.535  -0.529  -0.502  -0.462  -0.422  -0.422  -0.417
 -0.416  -0.408  -0.402  -0.398  -0.387  -0.378  -0.370  -0.361
 -0.350  -0.344  -0.294  -0.267  -0.263  -0.261  -0.250  -0.202

          Ground-State Mulliken Net Atomic Charges

     Atom                 Charge (a.u.)
  ----------------------------------------
      1 H                     0.195797
      2 H                     0.119010
      3 C                     0.023155
      4 C                    -0.382420
      5 S                    -0.090029
      6 C                     0.440937
      7 H                     0.126296
      8 C                    -0.285441
      9 H                     0.122328
     10 C                    -0.198665
     11 C                    -0.010304
     12 S                    -0.190850
     13 C                     0.092283
     14 H                     0.126767
     15 C                    -0.201915
     16 C                    -0.292482
     17 H                     0.134721
     18 C                     0.410970
     19 S                    -0.045816
     20 C                    -0.436454
     21 C                     0.030672
     22 H                     0.117233
     23 H                     0.194207
  ----------------------------------------
  Sum of atomic charges =     0.000000

                    Cartesian Multipole Moments
 -----------------------------------------------------------------
    Charge (ESU x 10^10)
                 0.0000
    Dipole Moment (Debye)
         X      -0.0120      Y       0.5432      Z      -0.4394
       Tot       0.6988
    Quadrupole Moments (Debye-Ang)
        XX     -90.4117     XY       0.0110     YY    -101.1140
        XZ       0.0630     YZ      -0.4949     ZZ    -116.0662

 Total job time:  81.37s(wall), 85.93s(cpu)
        *  Thank you very much for using Q-Chem.  Have a nice day.  *
