 Q-Chem 4.4, Q-Chem, Inc., Pleasanton, CA (2016)
 Q-Chem 4.4.2 for Intel X86 EM64T Linux

User input:
--------------------------------------------------------------
$molecule
 0  1
 H           6.23254100       -0.22338900        0.17638100
 H           5.29752400        2.22850500       -0.10953100
 C           5.19733500        0.07486000        0.08356300
 C           4.68347900        1.33634400       -0.06443600
 S           3.94559900       -1.12581000        0.11905200
 C           3.26267300        1.34659400       -0.16511200
 H           2.67740100        2.24810800       -0.30841700
 C           2.69562400        0.08941900       -0.09094600
 H           1.33241900       -2.39005500       -0.68762600
 C           1.29739300       -0.28590200       -0.16150800
 C           0.73808300       -1.51455700       -0.45078400
 S           0.03601800        0.89451200        0.14982500
 C          -0.68041100       -1.51067300       -0.44936800
 H          -1.28012400       -2.38277100       -0.68510300
 C          -1.23220500       -0.27900200       -0.15852500
 C          -2.62830100        0.10383400       -0.08465000
 H          -3.64097521       -1.70356767        0.55977063
 C          -3.72205210       -0.66255877        0.26730011
 S          -3.13608126        1.73921343       -0.47299786
 C          -4.95243722        0.05451696        0.23617773
 C          -4.79600564        1.36365839       -0.13661076
 H          -5.91157899       -0.38257498        0.48923787
 H          -5.55262859        2.12963094       -0.23673587
$end

$rem
         jobtype = opt
        exchange = b3lyp
           basis = 6-31++g**
  max_scf_cycles = 150
      mem_static = 281
       mem_total = 2818
      sym_ignore = true
        symmetry = false
          thresh = 12
$end

$opt
CONSTRAINT
tors 13 15 16 18 30.0
ENDCONSTRAINT
$end

--------------------------------------------------------------

   16   -1656.6630501742      2.53E-09 Convergence criterion met
 Total energy in the final basis set = -1656.6630501742
   12   -1656.6632350740      6.13E-09 Convergence criterion met
 Total energy in the final basis set = -1656.6632350740
   12   -1656.6632697810      4.05E-09 Convergence criterion met
 Total energy in the final basis set = -1656.6632697810
   10   -1656.6632745428      4.95E-09 Convergence criterion met
 Total energy in the final basis set = -1656.6632745428
   10   -1656.6632774543      5.74E-09 Convergence criterion met
 Total energy in the final basis set = -1656.6632774543

             Standard Nuclear Orientation (Angstroms)
    I     Atom           X                Y                Z
 ----------------------------------------------------------------
    1      H       6.2346257597    -0.2691593232     0.1907055082
    2      H       5.3341333716     2.1933781028    -0.1151478737
    3      C       5.2038386268     0.0428093278     0.0938230298
    4      C       4.7077663139     1.3101204154    -0.0646275440
    5      S       3.9351557312    -1.1399945216     0.1354320820
    6      C       3.2873592311     1.3394120698    -0.1683280102
    7      H       2.7147967997     2.2477923549    -0.3195223651
    8      C       2.7029961003     0.0909108066    -0.0865376342
    9      H       1.3059291095    -2.3684381831    -0.6891598266
   10      C       1.2993044106    -0.2651214029    -0.1585959930
   11      C       0.7229851857    -1.4856341712    -0.4507307127
   12      S       0.0547363671     0.9326386727     0.1479182096
   13      C      -0.6954904489    -1.4596958753    -0.4598447606
   14      H      -1.3102258681    -2.3153364171    -0.7140473918
   15      C      -1.2288106848    -0.2208108763    -0.1657767801
   16      C      -2.6309791299     0.1476739277    -0.0839413097
   17      H      -3.5674956723    -1.6833171839     0.5991099751
   18      C      -3.6938081730    -0.6547236960     0.2814423565
   19      S      -3.1987341550     1.7586678270    -0.4868721570
   20      C      -4.9505145405     0.0143915594     0.2378741743
   21      C      -4.8433726524     1.3253106779    -0.1481313417
   22      H      -5.8928902284    -0.4544266187     0.4974183940
   23      H      -5.6280164637     2.0618878275    -0.2535031789
 ----------------------------------------------------------------

   10   -1656.6632784513      3.65E-09 Convergence criterion met
 Total energy in the final basis set = -1656.6632784513
 Final energy is   -1656.66327845133
 **  OPTIMIZATION CONVERGED  **

                    Orbital Energies (a.u.)
 --------------------------------------------------------------

 Alpha MOs
 -- Occupied --
-88.922 -88.921 -88.921 -10.241 -10.241 -10.240 -10.240 -10.226
-10.226 -10.206 -10.206 -10.206 -10.206 -10.205 -10.205  -7.981
 -7.981  -7.980  -5.945  -5.945  -5.945  -5.942  -5.941  -5.941
 -5.938  -5.938  -5.937  -0.907  -0.892  -0.876  -0.787  -0.756
 -0.745  -0.744  -0.734  -0.697  -0.617  -0.596  -0.569  -0.564
 -0.537  -0.533  -0.529  -0.499  -0.463  -0.422  -0.421  -0.418
 -0.415  -0.408  -0.402  -0.397  -0.386  -0.376  -0.370  -0.361
 -0.352  -0.343  -0.293  -0.267  -0.263  -0.260  -0.250  -0.202

          Ground-State Mulliken Net Atomic Charges

     Atom                 Charge (a.u.)
  ----------------------------------------
      1 H                     0.195708
      2 H                     0.119889
      3 C                     0.019625
      4 C                    -0.370401
      5 S                    -0.099750
      6 C                     0.440898
      7 H                     0.124117
      8 C                    -0.296424
      9 H                     0.125442
     10 C                    -0.164170
     11 C                     0.017884
     12 S                    -0.195110
     13 C                     0.080289
     14 H                     0.126405
     15 C                    -0.243393
     16 C                    -0.270342
     17 H                     0.135871
     18 C                     0.324719
     19 S                    -0.078367
     20 C                    -0.345263
     21 C                     0.033938
     22 H                     0.120124
     23 H                     0.198311
  ----------------------------------------
  Sum of atomic charges =     0.000000

                    Cartesian Multipole Moments
 -----------------------------------------------------------------
    Charge (ESU x 10^10)
                 0.0000
    Dipole Moment (Debye)
         X      -0.2343      Y      -0.4029      Z      -0.0695
       Tot       0.4712
    Quadrupole Moments (Debye-Ang)
        XX     -89.3867     XY       2.1468     YY    -101.2926
        XZ      -0.8578     YZ      -0.5231     ZZ    -115.9567

 Total job time:  100.75s(wall), 107.08s(cpu)
        *  Thank you very much for using Q-Chem.  Have a nice day.  *
