 Q-Chem 4.4, Q-Chem, Inc., Pleasanton, CA (2016)
 Q-Chem 4.4.2 for Intel X86 EM64T Linux

User input:
--------------------------------------------------------------
$molecule
 0  1
 H           6.23254100       -0.22338900        0.17638100
 H           5.29752400        2.22850500       -0.10953100
 C           5.19733500        0.07486000        0.08356300
 C           4.68347900        1.33634400       -0.06443600
 S           3.94559900       -1.12581000        0.11905200
 C           3.26267300        1.34659400       -0.16511200
 H           2.67740100        2.24810800       -0.30841700
 C           2.69562400        0.08941900       -0.09094600
 H           1.33241900       -2.39005500       -0.68762600
 C           1.29739300       -0.28590200       -0.16150800
 C           0.73808300       -1.51455700       -0.45078400
 S           0.03601800        0.89451200        0.14982500
 C          -0.68041100       -1.51067300       -0.44936800
 H          -1.28012400       -2.38277100       -0.68510300
 C          -1.23220500       -0.27900200       -0.15852500
 C          -2.62830100        0.10383400       -0.08465000
 H          -3.69228183       -1.61369934       -0.87554305
 C          -3.74682592       -0.61162347       -0.46483528
 S          -3.10084898        1.66935273        0.55485782
 C          -4.96992714        0.08209200       -0.23724786
 C          -4.78359880        1.32150121        0.31632231
 H          -5.94700720       -0.32724204       -0.46703455
 H          -5.52975862        2.05225842        0.59642351
$end

$rem
         jobtype = opt
        exchange = b3lyp
           basis = 6-31++g**
  max_scf_cycles = 150
      mem_static = 281
       mem_total = 2818
      sym_ignore = true
        symmetry = false
          thresh = 12
$end

$opt
CONSTRAINT
tors 13 15 16 18 -10.0
ENDCONSTRAINT
$end

--------------------------------------------------------------

   16   -1656.6622929427      2.59E-09 Convergence criterion met
 Total energy in the final basis set = -1656.6622929427
   12   -1656.6626428070      9.58E-09 Convergence criterion met
 Total energy in the final basis set = -1656.6626428070
   11   -1656.6626936016      8.45E-09 Convergence criterion met
 Total energy in the final basis set = -1656.6626936016
   11   -1656.6627155750      4.09E-09 Convergence criterion met
 Total energy in the final basis set = -1656.6627155750
   11   -1656.6627295343      3.39E-09 Convergence criterion met
 Total energy in the final basis set = -1656.6627295343
   11   -1656.6627357196      3.23E-09 Convergence criterion met
 Total energy in the final basis set = -1656.6627357196
   10   -1656.6627385638      6.62E-09 Convergence criterion met
 Total energy in the final basis set = -1656.6627385638

             Standard Nuclear Orientation (Angstroms)
    I     Atom           X                Y                Z
 ----------------------------------------------------------------
    1      H       6.2376298273    -0.2678378585     0.1632740944
    2      H       5.3353386444     2.1964068386    -0.1230139040
    3      C       5.2063627987     0.0445081019     0.0728930421
    4      C       4.7093825340     1.3126741799    -0.0758221436
    5      S       3.9382226574    -1.1388883370     0.1121505220
    6      C       3.2887263705     1.3422450859    -0.1744321956
    7      H       2.7157901452     2.2517244044    -0.3175310593
    8      C       2.7045599088     0.0931472424    -0.0977434770
    9      H       1.3039707356    -2.3737733702    -0.6660137091
   10      C       1.3012952941    -0.2625548707    -0.1666132661
   11      C       0.7228238091    -1.4859622713    -0.4423161146
   12      S       0.0571434244     0.9393617915     0.1259238828
   13      C      -0.6942601807    -1.4662210459    -0.4208186838
   14      H      -1.3050900671    -2.3424048492    -0.6043816868
   15      C      -1.2296857042    -0.2258499471    -0.1303955800
   16      C      -2.6312076620     0.1466292213    -0.0731606909
   17      H      -3.6282579438    -1.5747572280    -0.9436196174
   18      C      -3.7216014030    -0.6006572007    -0.4778904996
   19      S      -3.1685007927     1.6708220372     0.6119025153
   20      C      -4.9694189800     0.0448794803    -0.2503094612
   21      C      -4.8337070381     1.2808512296     0.3263558329
   22      H      -5.9283254505    -0.3881582497    -0.5113519499
   23      H      -5.6063914172     1.9864721253     0.5986720494
 ----------------------------------------------------------------

    9   -1656.6627394150      6.19E-09 Convergence criterion met
 Total energy in the final basis set = -1656.6627394150
 Final energy is   -1656.66273941502
 **  OPTIMIZATION CONVERGED  **

                    Orbital Energies (a.u.)
 --------------------------------------------------------------

 Alpha MOs
 -- Occupied --
-88.922 -88.921 -88.921 -10.242 -10.241 -10.241 -10.240 -10.226
-10.226 -10.207 -10.206 -10.206 -10.206 -10.205 -10.205  -7.981
 -7.981  -7.980  -5.945  -5.945  -5.944  -5.942  -5.941  -5.941
 -5.938  -5.938  -5.937  -0.907  -0.892  -0.876  -0.788  -0.757
 -0.745  -0.745  -0.734  -0.697  -0.618  -0.597  -0.569  -0.564
 -0.537  -0.533  -0.530  -0.499  -0.463  -0.424  -0.420  -0.419
 -0.416  -0.408  -0.402  -0.397  -0.387  -0.376  -0.370  -0.363
 -0.351  -0.342  -0.298  -0.269  -0.263  -0.259  -0.249  -0.200

          Ground-State Mulliken Net Atomic Charges

     Atom                 Charge (a.u.)
  ----------------------------------------
      1 H                     0.196998
      2 H                     0.120277
      3 C                     0.022485
      4 C                    -0.293751
      5 S                    -0.107047
      6 C                     0.541622
      7 H                     0.132240
      8 C                    -0.392687
      9 H                     0.124792
     10 C                    -0.183694
     11 C                     0.025520
     12 S                    -0.423873
     13 C                     0.161783
     14 H                     0.109352
     15 C                    -0.135964
     16 C                    -0.244263
     17 H                     0.109584
     18 C                     0.321191
     19 S                    -0.056352
     20 C                    -0.372153
     21 C                     0.022992
     22 H                     0.120483
     23 H                     0.200464
  ----------------------------------------
  Sum of atomic charges =     0.000000

                    Cartesian Multipole Moments
 -----------------------------------------------------------------
    Charge (ESU x 10^10)
                 0.0000
    Dipole Moment (Debye)
         X      -0.2639      Y      -0.3971      Z      -0.4280
       Tot       0.6407
    Quadrupole Moments (Debye-Ang)
        XX     -89.1683     XY       2.1786     YY    -101.7422
        XZ       0.8385     YZ       2.8048     ZZ    -115.5535

 Total job time:  131.43s(wall), 140.34s(cpu)
        *  Thank you very much for using Q-Chem.  Have a nice day.  *
