 Q-Chem 4.4, Q-Chem, Inc., Pleasanton, CA (2016)
 Q-Chem 4.4.2 for Intel X86 EM64T Linux

User input:
--------------------------------------------------------------
$molecule
 0  1
 H           6.23254100       -0.22338900        0.17638100
 H           5.29752400        2.22850500       -0.10953100
 C           5.19733500        0.07486000        0.08356300
 C           4.68347900        1.33634400       -0.06443600
 S           3.94559900       -1.12581000        0.11905200
 C           3.26267300        1.34659400       -0.16511200
 H           2.67740100        2.24810800       -0.30841700
 C           2.69562400        0.08941900       -0.09094600
 H           1.33241900       -2.39005500       -0.68762600
 C           1.29739300       -0.28590200       -0.16150800
 C           0.73808300       -1.51455700       -0.45078400
 S           0.03601800        0.89451200        0.14982500
 C          -0.68041100       -1.51067300       -0.44936800
 H          -1.28012400       -2.38277100       -0.68510300
 C          -1.23220500       -0.27900200       -0.15852500
 C          -2.62830100        0.10383400       -0.08465000
 H          -3.66281269       -1.44378444       -1.19916805
 C          -3.73144348       -0.52378309       -0.62934413
 S          -3.12233120        1.54641049        0.78599803
 C          -4.96034927        0.13766261       -0.34422327
 C          -4.79384777        1.26471633        0.41690783
 H          -5.92768604       -0.21507890       -0.68315500
 H          -5.54859934        1.94784405        0.78146761
$end

$rem
         jobtype = opt
        exchange = b3lyp
           basis = 6-31++g**
  max_scf_cycles = 150
      mem_static = 281
       mem_total = 2818
      sym_ignore = true
        symmetry = false
          thresh = 12
$end

$opt
CONSTRAINT
tors 13 15 16 18 -20.0
ENDCONSTRAINT
$end

--------------------------------------------------------------

   16   -1656.6625357398      2.60E-09 Convergence criterion met
 Total energy in the final basis set = -1656.6625357398
   12   -1656.6629330372      7.15E-09 Convergence criterion met
 Total energy in the final basis set = -1656.6629330372
   12   -1656.6630181502      3.83E-09 Convergence criterion met
 Total energy in the final basis set = -1656.6630181502
   11   -1656.6630515147      6.73E-09 Convergence criterion met
 Total energy in the final basis set = -1656.6630515147
   11   -1656.6630647425      3.98E-09 Convergence criterion met
 Total energy in the final basis set = -1656.6630647425
   10   -1656.6630701926      7.87E-09 Convergence criterion met
 Total energy in the final basis set = -1656.6630701926
   10   -1656.6630721578      4.63E-09 Convergence criterion met
 Total energy in the final basis set = -1656.6630721578

             Standard Nuclear Orientation (Angstroms)
    I     Atom           X                Y                Z
 ----------------------------------------------------------------
    1      H       6.2364877723    -0.2690734107     0.1623534149
    2      H       5.3355703983     2.1963179321    -0.1182347503
    3      C       5.2054473184     0.0439528104     0.0716667446
    4      C       4.7092081303     1.3127162617    -0.0741962393
    5      S       3.9367931654    -1.1389288111     0.1064737103
    6      C       3.2886036396     1.3430626309    -0.1742133932
    7      H       2.7161994716     2.2532230132    -0.3150963744
    8      C       2.7038902983     0.0941464512    -0.1012465297
    9      H       1.3043024778    -2.3722281544    -0.6701314937
   10      C       1.3000830421    -0.2608162680    -0.1716299175
   11      C       0.7225291982    -1.4844893360    -0.4477026502
   12      S       0.0558164205     0.9412931448     0.1201875381
   13      C      -0.6951655020    -1.4666659108    -0.4206624201
   14      H      -1.3079583672    -2.3440484874    -0.5918126979
   15      C      -1.2297319342    -0.2269047668    -0.1299545973
   16      C      -2.6313716970     0.1453386467    -0.0694301524
   17      H      -3.5907663134    -1.3900590552    -1.2635141412
   18      C      -3.7051953809    -0.5124052815    -0.6379576761
   19      S      -3.1903216834     1.5381689836     0.8407916890
   20      C      -4.9599968953     0.0977046131    -0.3536988403
   21      C      -4.8432623611     1.2195089968     0.4251846169
   22      H      -5.9087021750    -0.2747940735    -0.7231520171
   23      H      -5.6244808133     1.8789841210     0.7772741969
 ----------------------------------------------------------------

    9   -1656.6630728896      5.08E-09 Convergence criterion met
 Total energy in the final basis set = -1656.6630728896
 Final energy is   -1656.66307288955
 **  OPTIMIZATION CONVERGED  **

                    Orbital Energies (a.u.)
 --------------------------------------------------------------

 Alpha MOs
 -- Occupied --
-88.921 -88.921 -88.921 -10.241 -10.241 -10.241 -10.240 -10.226
-10.226 -10.207 -10.206 -10.206 -10.206 -10.205 -10.205  -7.981
 -7.981  -7.980  -5.945  -5.945  -5.944  -5.941  -5.941  -5.941
 -5.938  -5.938  -5.937  -0.907  -0.892  -0.876  -0.787  -0.756
 -0.745  -0.745  -0.734  -0.697  -0.617  -0.596  -0.569  -0.564
 -0.537  -0.533  -0.530  -0.499  -0.463  -0.423  -0.420  -0.419
 -0.415  -0.408  -0.402  -0.397  -0.387  -0.376  -0.370  -0.362
 -0.352  -0.343  -0.296  -0.268  -0.263  -0.260  -0.249  -0.201

          Ground-State Mulliken Net Atomic Charges

     Atom                 Charge (a.u.)
  ----------------------------------------
      1 H                     0.197298
      2 H                     0.119963
      3 C                     0.029460
      4 C                    -0.317250
      5 S                    -0.119986
      6 C                     0.533879
      7 H                     0.128996
      8 C                    -0.422326
      9 H                     0.127184
     10 C                    -0.208616
     11 C                     0.060950
     12 S                    -0.342234
     13 C                     0.136904
     14 H                     0.117705
     15 C                    -0.172357
     16 C                    -0.292648
     17 H                     0.124990
     18 C                     0.375788
     19 S                    -0.050113
     20 C                    -0.381358
     21 C                     0.035916
     22 H                     0.120145
     23 H                     0.197709
  ----------------------------------------
  Sum of atomic charges =     0.000000

                    Cartesian Multipole Moments
 -----------------------------------------------------------------
    Charge (ESU x 10^10)
                 0.0000
    Dipole Moment (Debye)
         X      -0.2540      Y      -0.3463      Z      -0.4997
       Tot       0.6589
    Quadrupole Moments (Debye-Ang)
        XX     -89.2350     XY       1.9070     YY    -102.4947
        XZ       1.1711     YZ       3.2295     ZZ    -114.7260

 Total job time:  132.28s(wall), 140.33s(cpu)
        *  Thank you very much for using Q-Chem.  Have a nice day.  *
