 Q-Chem 4.4, Q-Chem, Inc., Pleasanton, CA (2016)
 Q-Chem 4.4.2 for Intel X86 EM64T Linux

User input:
--------------------------------------------------------------
$molecule
 0  1
 H           6.23254100       -0.22338900        0.17638100
 H           5.29752400        2.22850500       -0.10953100
 C           5.19733500        0.07486000        0.08356300
 C           4.68347900        1.33634400       -0.06443600
 S           3.94559900       -1.12581000        0.11905200
 C           3.26267300        1.34659400       -0.16511200
 H           2.67740100        2.24810800       -0.30841700
 C           2.69562400        0.08941900       -0.09094600
 H           1.33241900       -2.39005500       -0.68762600
 C           1.29739300       -0.28590200       -0.16150800
 C           0.73808300       -1.51455700       -0.45078400
 S           0.03601800        0.89451200        0.14982500
 C          -0.68041100       -1.51067300       -0.44936800
 H          -1.28012400       -2.38277100       -0.68510300
 C          -1.23220500       -0.27900200       -0.15852500
 C          -2.62830100        0.10383400       -0.08465000
 H          -2.60023964        2.26086472       -0.31685429
 C          -3.18940236        1.36328842       -0.16501205
 S          -3.88329908       -1.10372570        0.13873338
 C          -4.60988351        1.36067298       -0.05899219
 C          -5.12925493        0.10276780        0.09981988
 H          -5.21978279        2.25546833       -0.10804190
 H          -6.16557144       -0.18962198        0.19868121
$end

$rem
         jobtype = opt
        exchange = b3lyp
           basis = 6-31++g**
  max_scf_cycles = 150
      mem_static = 281
       mem_total = 2818
      sym_ignore = true
        symmetry = false
          thresh = 12
$end

$opt
CONSTRAINT
tors 13 15 16 18 -160.0
ENDCONSTRAINT
$end

--------------------------------------------------------------

             Standard Nuclear Orientation (Angstroms)
    I     Atom           X                Y                Z
 ----------------------------------------------------------------
    1      H       6.2325410000    -0.2233890000     0.1763810000
    2      H       5.2975240000     2.2285050000    -0.1095310000
    3      C       5.1973350000     0.0748600000     0.0835630000
    4      C       4.6834790000     1.3363440000    -0.0644360000
    5      S       3.9455990000    -1.1258100000     0.1190520000
    6      C       3.2626730000     1.3465940000    -0.1651120000
    7      H       2.6774010000     2.2481080000    -0.3084170000
    8      C       2.6956240000     0.0894190000    -0.0909460000
    9      H       1.3324190000    -2.3900550000    -0.6876260000
   10      C       1.2973930000    -0.2859020000    -0.1615080000
   11      C       0.7380830000    -1.5145570000    -0.4507840000
   12      S       0.0360180000     0.8945120000     0.1498250000
   13      C      -0.6804110000    -1.5106730000    -0.4493680000
   14      H      -1.2801240000    -2.3827710000    -0.6851030000
   15      C      -1.2322050000    -0.2790020000    -0.1585250000
   16      C      -2.6283010000     0.1038340000    -0.0846500000
   17      H      -2.6002396400     2.2608647200    -0.3168542900
   18      C      -3.1894023600     1.3632884200    -0.1650120500
   19      S      -3.8832990800    -1.1037257000     0.1387333800
   20      C      -4.6098835100     1.3606729800    -0.0589921900
   21      C      -5.1292549300     0.1027678000     0.0998198800
   22      H      -5.2197827900     2.2554683300    -0.1080419000
   23      H      -6.1655714400    -0.1896219800     0.1986812100
 ----------------------------------------------------------------

   15   -1656.6644181265      3.81E-09 Convergence criterion met
 Total energy in the final basis set = -1656.6644181265
 Final energy is   -1656.66441812652
 **  OPTIMIZATION CONVERGED  **

                    Orbital Energies (a.u.)
 --------------------------------------------------------------

 Alpha MOs
 -- Occupied --
-88.922 -88.921 -88.921 -10.242 -10.242 -10.241 -10.241 -10.226
-10.226 -10.207 -10.206 -10.206 -10.206 -10.205 -10.205  -7.981
 -7.981  -7.981  -5.945  -5.945  -5.945  -5.941  -5.941  -5.941
 -5.938  -5.938  -5.938  -0.907  -0.893  -0.877  -0.788  -0.757
 -0.745  -0.745  -0.732  -0.698  -0.618  -0.598  -0.570  -0.560
 -0.536  -0.535  -0.530  -0.502  -0.462  -0.423  -0.422  -0.417
 -0.416  -0.409  -0.402  -0.398  -0.388  -0.378  -0.370  -0.361
 -0.350  -0.343  -0.296  -0.268  -0.263  -0.260  -0.250  -0.201

          Ground-State Mulliken Net Atomic Charges

     Atom                 Charge (a.u.)
  ----------------------------------------
      1 H                     0.195648
      2 H                     0.119031
      3 C                     0.019611
      4 C                    -0.380778
      5 S                    -0.075703
      6 C                     0.433034
      7 H                     0.127701
      8 C                    -0.279064
      9 H                     0.121055
     10 C                    -0.190170
     11 C                     0.027877
     12 S                    -0.238512
     13 C                     0.032670
     14 H                     0.121312
     15 C                    -0.191432
     16 C                    -0.279346
     17 H                     0.128107
     18 C                     0.431979
     19 S                    -0.074120
     20 C                    -0.383522
     21 C                     0.020122
     22 H                     0.118937
     23 H                     0.195563
  ----------------------------------------
  Sum of atomic charges =     0.000000

                    Cartesian Multipole Moments
 -----------------------------------------------------------------
    Charge (ESU x 10^10)
                 0.0000
    Dipole Moment (Debye)
         X       0.0003      Y       0.5564      Z      -0.3223
       Tot       0.6430
    Quadrupole Moments (Debye-Ang)
        XX     -90.4043     XY      -0.0087     YY    -100.8006
        XZ      -0.0367     YZ       0.2751     ZZ    -116.4122

 Total job time:  20.44s(wall), 21.53s(cpu)
        *  Thank you very much for using Q-Chem.  Have a nice day.  *
