 Q-Chem 4.4, Q-Chem, Inc., Pleasanton, CA (2016)
 Q-Chem 4.4.2 for Intel X86 EM64T Linux

User input:
--------------------------------------------------------------
$molecule
 0  1
 H           6.23254100       -0.22338900        0.17638100
 H           5.29752400        2.22850500       -0.10953100
 C           5.19733500        0.07486000        0.08356300
 C           4.68347900        1.33634400       -0.06443600
 S           3.94559900       -1.12581000        0.11905200
 C           3.26267300        1.34659400       -0.16511200
 H           2.67740100        2.24810800       -0.30841700
 C           2.69562400        0.08941900       -0.09094600
 H           1.33241900       -2.39005500       -0.68762600
 C           1.29739300       -0.28590200       -0.16150800
 C           0.73808300       -1.51455700       -0.45078400
 S           0.03601800        0.89451200        0.14982500
 C          -0.68041100       -1.51067300       -0.44936800
 H          -1.28012400       -2.38277100       -0.68510300
 C          -1.23220500       -0.27900200       -0.15852500
 C          -2.62830100        0.10383400       -0.08465000
 H          -3.55755785       -0.95682507       -1.73358051
 C          -3.67712623       -0.27343305       -0.90021941
 S          -3.19838480        1.19557385        1.16684083
 C          -4.92588674        0.29748729       -0.52119316
 C          -4.82876347        1.10574604        0.58088590
 H          -5.85812029        0.10761036       -1.04074016
 H          -5.61280440        1.65548916        1.08316030
$end

$rem
         jobtype = opt
        exchange = b3lyp
           basis = 6-31++g**
  max_scf_cycles = 150
      mem_static = 281
       mem_total = 2818
      sym_ignore = true
        symmetry = false
          thresh = 12
$end

$opt
CONSTRAINT
tors 13 15 16 18 -40.0
ENDCONSTRAINT
$end

--------------------------------------------------------------

   16   -1656.6625608895      2.72E-09 Convergence criterion met
 Total energy in the final basis set = -1656.6625608895
   12   -1656.6629492399      6.24E-09 Convergence criterion met
 Total energy in the final basis set = -1656.6629492399
   11   -1656.6630409742      9.31E-09 Convergence criterion met
 Total energy in the final basis set = -1656.6630409742
   10   -1656.6630543779      7.45E-09 Convergence criterion met
 Total energy in the final basis set = -1656.6630543779
   10   -1656.6630574820      4.15E-09 Convergence criterion met
 Total energy in the final basis set = -1656.6630574820

             Standard Nuclear Orientation (Angstroms)
    I     Atom           X                Y                Z
 ----------------------------------------------------------------
    1      H       6.2355380416    -0.2633453488     0.1681223704
    2      H       5.3311761009     2.2012232519    -0.1084866646
    3      C       5.2041113018     0.0482622869     0.0768248974
    4      C       4.7061419371     1.3165768296    -0.0666082602
    5      S       3.9372300202    -1.1364756988     0.1079418626
    6      C       3.2854094476     1.3448119261    -0.1678244885
    7      H       2.7115684259     2.2541472714    -0.3081500072
    8      C       2.7028815859     0.0950668958    -0.0978962761
    9      H       1.3117548371    -2.3655351337    -0.7037500767
   10      C       1.2988025850    -0.2622543268    -0.1724921516
   11      C       0.7264235150    -1.4829685770    -0.4703298335
   12      S       0.0515681718     0.9318928092     0.1374535555
   13      C      -0.6929138326    -1.4692716574    -0.4442015586
   14      H      -1.3085994403    -2.3430865958    -0.6240549861
   15      C      -1.2287001508    -0.2344672500    -0.1435163655
   16      C      -2.6342796535     0.1280194351    -0.0577623994
   17      H      -3.4955189177    -0.9238659402    -1.7415932300
   18      C      -3.6605100168    -0.2820979987    -0.8838228385
   19      S      -3.2497219799     1.1986147403     1.1896544583
   20      C      -4.9307793902     0.2501667569    -0.5174076141
   21      C      -4.8663008752     1.0752729374     0.5751190654
   22      H      -5.8497013939     0.0425617726    -1.0539103926
   23      H      -5.6691760991     1.6184171940     1.0546597235
 ----------------------------------------------------------------

    9   -1656.6630581661      7.07E-09 Convergence criterion met
 Total energy in the final basis set = -1656.6630581661
 Final energy is   -1656.66305816613
 **  OPTIMIZATION CONVERGED  **

                    Orbital Energies (a.u.)
 --------------------------------------------------------------

 Alpha MOs
 -- Occupied --
-88.921 -88.921 -88.921 -10.241 -10.240 -10.240 -10.239 -10.226
-10.226 -10.206 -10.206 -10.206 -10.206 -10.205 -10.205  -7.980
 -7.980  -7.980  -5.945  -5.945  -5.944  -5.941  -5.941  -5.941
 -5.938  -5.937  -5.937  -0.906  -0.892  -0.876  -0.787  -0.755
 -0.745  -0.744  -0.734  -0.697  -0.617  -0.595  -0.568  -0.564
 -0.537  -0.533  -0.529  -0.499  -0.463  -0.422  -0.419  -0.418
 -0.415  -0.408  -0.403  -0.398  -0.385  -0.376  -0.370  -0.360
 -0.352  -0.344  -0.291  -0.266  -0.263  -0.261  -0.247  -0.205

          Ground-State Mulliken Net Atomic Charges

     Atom                 Charge (a.u.)
  ----------------------------------------
      1 H                     0.196767
      2 H                     0.119532
      3 C                     0.036646
      4 C                    -0.380585
      5 S                    -0.116435
      6 C                     0.512126
      7 H                     0.126913
      8 C                    -0.469280
      9 H                     0.122642
     10 C                    -0.044899
     11 C                    -0.144500
     12 S                    -0.178193
     13 C                     0.163144
     14 H                     0.136181
     15 C                    -0.168201
     16 C                    -0.344362
     17 H                     0.145103
     18 C                     0.348050
     19 S                    -0.004887
     20 C                    -0.395271
     21 C                     0.024815
     22 H                     0.119685
     23 H                     0.195008
  ----------------------------------------
  Sum of atomic charges =     0.000000

                    Cartesian Multipole Moments
 -----------------------------------------------------------------
    Charge (ESU x 10^10)
                 0.0000
    Dipole Moment (Debye)
         X      -0.2227      Y      -0.2072      Z      -0.6222
       Tot       0.6926
    Quadrupole Moments (Debye-Ang)
        XX     -89.4410     XY       1.2107     YY    -104.0808
        XZ       1.5418     YZ       3.2812     ZZ    -112.9210

 Total job time:  99.02s(wall), 105.24s(cpu)
        *  Thank you very much for using Q-Chem.  Have a nice day.  *
