 Q-Chem 4.4, Q-Chem, Inc., Pleasanton, CA (2016)
 Q-Chem 4.4.2 for Intel X86 EM64T Linux

User input:
--------------------------------------------------------------
$molecule
 0  1
 H           6.23254100       -0.22338900        0.17638100
 H           5.29752400        2.22850500       -0.10953100
 C           5.19733500        0.07486000        0.08356300
 C           4.68347900        1.33634400       -0.06443600
 S           3.94559900       -1.12581000        0.11905200
 C           3.26267300        1.34659400       -0.16511200
 H           2.67740100        2.24810800       -0.30841700
 C           2.69562400        0.08941900       -0.09094600
 H           1.33241900       -2.39005500       -0.68762600
 C           1.29739300       -0.28590200       -0.16150800
 C           0.73808300       -1.51455700       -0.45078400
 S           0.03601800        0.89451200        0.14982500
 C          -0.68041100       -1.51067300       -0.44936800
 H          -1.28012400       -2.38277100       -0.68510300
 C          -1.23220500       -0.27900200       -0.15852500
 C          -2.62830100        0.10383400       -0.08465000
 H          -2.96831238        0.46625083        2.02734765
 C          -3.37982547        0.43933500        1.02447952
 S          -3.61682626        0.19066227       -1.53323531
 C          -4.73020410        0.77220209        0.71676079
 C          -5.00586276        0.69222191       -0.62298130
 H          -5.46262633        1.06742947        1.45935098
 H          -5.93868617        0.89437178       -1.13110842
$end

$rem
         jobtype = opt
        exchange = b3lyp
           basis = 6-31++g**
  max_scf_cycles = 150
      mem_static = 281
       mem_total = 2818
      sym_ignore = true
        symmetry = false
          thresh = 12
$end

$opt
CONSTRAINT
tors 13 15 16 18 110.0
ENDCONSTRAINT
$end

--------------------------------------------------------------

   15   -1656.6608364833      8.20E-09 Convergence criterion met
 Total energy in the final basis set = -1656.6608364833
   12   -1656.6611999821      5.13E-09 Convergence criterion met
 Total energy in the final basis set = -1656.6611999821
   12   -1656.6612605764      3.26E-09 Convergence criterion met
 Total energy in the final basis set = -1656.6612605764
   12   -1656.6612856470      2.18E-09 Convergence criterion met
 Total energy in the final basis set = -1656.6612856470
   11   -1656.6613015342      8.05E-09 Convergence criterion met
 Total energy in the final basis set = -1656.6613015342
   10   -1656.6613069118      9.70E-09 Convergence criterion met
 Total energy in the final basis set = -1656.6613069118
    9   -1656.6613084368      8.28E-09 Convergence criterion met
 Total energy in the final basis set = -1656.6613084368

             Standard Nuclear Orientation (Angstroms)
    I     Atom           X                Y                Z
 ----------------------------------------------------------------
    1      H       6.2246888916    -0.2695692794     0.2677210425
    2      H       5.3352134263     2.1943207197    -0.0579261580
    3      C       5.1969165939     0.0437028501     0.1459757304
    4      C       4.7067339145     1.3117930446    -0.0237128832
    5      S       3.9262532684    -1.1370975106     0.1555021714
    6      C       3.2890992334     1.3424872448    -0.1628298712
    7      H       2.7212993249     2.2516157563    -0.3270209841
    8      C       2.7016469775     0.0953148078    -0.0951571202
    9      H       1.3225139590    -2.3655936199    -0.7221242831
   10      C       1.2975948505    -0.2592226259    -0.2012381653
   11      C       0.7325812762    -1.4819740137    -0.5048620097
   12      S       0.0448845011     0.9352931745     0.0718897170
   13      C      -0.6884515232    -1.4653106434    -0.5177192693
   14      H      -1.3016982846    -2.3352797978    -0.7240573566
   15      C      -1.2290028409    -0.2304785360    -0.2392151455
   16      C      -2.6360245559     0.1535095859    -0.1245509957
   17      H      -2.8826157210     0.5780926915     1.9802448869
   18      C      -3.3432909445     0.5130919654     1.0009133975
   19      S      -3.6947506689     0.1213502338    -1.5235078461
   20      C      -4.7234570877     0.7693258611     0.7468234360
   21      C      -5.0615234136     0.5926754235    -0.5698623787
   22      H      -5.4340898305     1.0628514833     1.5111268318
   23      H      -6.0318168167     0.7115915344    -1.0329838367
 ----------------------------------------------------------------

    8   -1656.6613086846      7.35E-09 Convergence criterion met
 Total energy in the final basis set = -1656.6613086846
 Final energy is   -1656.66130868460
 **  OPTIMIZATION CONVERGED  **

                    Orbital Energies (a.u.)
 --------------------------------------------------------------

 Alpha MOs
 -- Occupied --
-88.921 -88.921 -88.921 -10.241 -10.240 -10.238 -10.238 -10.226
-10.226 -10.206 -10.206 -10.205 -10.205 -10.205 -10.205  -7.980
 -7.980  -7.980  -5.945  -5.944  -5.944  -5.941  -5.941  -5.940
 -5.938  -5.937  -5.937  -0.906  -0.892  -0.876  -0.785  -0.754
 -0.745  -0.743  -0.733  -0.697  -0.615  -0.594  -0.569  -0.562
 -0.537  -0.534  -0.527  -0.501  -0.462  -0.421  -0.420  -0.416
 -0.415  -0.406  -0.402  -0.401  -0.384  -0.376  -0.370  -0.358
 -0.351  -0.345  -0.284  -0.266  -0.262  -0.259  -0.245  -0.211

          Ground-State Mulliken Net Atomic Charges

     Atom                 Charge (a.u.)
  ----------------------------------------
      1 H                     0.196154
      2 H                     0.119244
      3 C                     0.034288
      4 C                    -0.417767
      5 S                    -0.119035
      6 C                     0.556231
      7 H                     0.128097
      8 C                    -0.458971
      9 H                     0.122807
     10 C                    -0.061923
     11 C                    -0.116535
     12 S                    -0.083350
     13 C                     0.160229
     14 H                     0.131203
     15 C                    -0.203254
     16 C                    -0.524529
     17 H                     0.142992
     18 C                     0.387038
     19 S                     0.035217
     20 C                    -0.378026
     21 C                     0.037017
     22 H                     0.119075
     23 H                     0.193800
  ----------------------------------------
  Sum of atomic charges =     0.000000

                    Cartesian Multipole Moments
 -----------------------------------------------------------------
    Charge (ESU x 10^10)
                 0.0000
    Dipole Moment (Debye)
         X      -0.0664      Y       0.0989      Z       0.3628
       Tot       0.3818
    Quadrupole Moments (Debye-Ang)
        XX     -90.1878     XY       0.2365     YY    -105.6804
        XZ      -0.7005     YZ       1.6629     ZZ    -111.3669

 Total job time:  129.65s(wall), 137.01s(cpu)
        *  Thank you very much for using Q-Chem.  Have a nice day.  *
