 Q-Chem 4.4, Q-Chem, Inc., Pleasanton, CA (2016)
 Q-Chem 4.4.2 for Intel X86 EM64T Linux

User input:
--------------------------------------------------------------
$molecule
 0  1
 H           6.23254100       -0.22338900        0.17638100
 H           5.29752400        2.22850500       -0.10953100
 C           5.19733500        0.07486000        0.08356300
 C           4.68347900        1.33634400       -0.06443600
 S           3.94559900       -1.12581000        0.11905200
 C           3.26267300        1.34659400       -0.16511200
 H           2.67740100        2.24810800       -0.30841700
 C           2.69562400        0.08941900       -0.09094600
 H           1.33241900       -2.39005500       -0.68762600
 C           1.29739300       -0.28590200       -0.16150800
 C           0.73808300       -1.51455700       -0.45078400
 S           0.03601800        0.89451200        0.14982500
 C          -0.68041100       -1.51067300       -0.44936800
 H          -1.28012400       -2.38277100       -0.68510300
 C          -1.23220500       -0.27900200       -0.15852500
 C          -2.62830100        0.10383400       -0.08465000
 H          -2.79417753        1.14264604        1.81293855
 C          -3.29063501        0.78520636        0.91762920
 S          -3.74192351       -0.29463643       -1.38241229
 C          -4.67291595        0.99495991        0.64501848
 C          -5.06180595        0.47647206       -0.56213864
 H          -5.34693631        1.51731693        1.31425792
 H          -6.04157974        0.49753432       -1.01910356
$end

$rem
         jobtype = opt
        exchange = b3lyp
           basis = 6-31++g**
  max_scf_cycles = 150
      mem_static = 281
       mem_total = 2818
      sym_ignore = true
        symmetry = false
          thresh = 12
$end

$opt
CONSTRAINT
tors 13 15 16 18 130.0
ENDCONSTRAINT
$end

--------------------------------------------------------------

   15   -1656.6626655434      7.59E-09 Convergence criterion met
 Total energy in the final basis set = -1656.6626655434
   12   -1656.6629906726      6.88E-09 Convergence criterion met
 Total energy in the final basis set = -1656.6629906726
   12   -1656.6630744478      5.15E-09 Convergence criterion met
 Total energy in the final basis set = -1656.6630744478
   11   -1656.6631010389      9.19E-09 Convergence criterion met
 Total energy in the final basis set = -1656.6631010389
   11   -1656.6631148436      7.83E-09 Convergence criterion met
 Total energy in the final basis set = -1656.6631148436
   10   -1656.6631187471      7.00E-09 Convergence criterion met
 Total energy in the final basis set = -1656.6631187471

             Standard Nuclear Orientation (Angstroms)
    I     Atom           X                Y                Z
 ----------------------------------------------------------------
    1      H       6.2190011445    -0.2627685909     0.2856394492
    2      H       5.3270185875     2.1992042491    -0.0472232180
    3      C       5.1913946866     0.0485201887     0.1576776240
    4      C       4.6998897985     1.3156051008    -0.0158334972
    5      S       3.9227877465    -1.1346528288     0.1610920592
    6      C       3.2831421224     1.3437803175    -0.1631314250
    7      H       2.7149553224     2.2519472529    -0.3313612475
    8      C       2.6972485381     0.0954311262    -0.0979349046
    9      H       1.3234488417    -2.3698319483    -0.7220925182
   10      C       1.2952788409    -0.2614018818    -0.2113022855
   11      C       0.7318036126    -1.4853288762    -0.5132553012
   12      S       0.0394784342     0.9353274238     0.0472381744
   13      C      -0.6881194595    -1.4713911059    -0.5307404865
   14      H      -1.2975030531    -2.3468648711    -0.7249328444
   15      C      -1.2316275335    -0.2344520900    -0.2574654437
   16      C      -2.6315893807     0.1483757205    -0.1424678980
   17      H      -2.7183832139     1.2450930682     1.7212414537
   18      C      -3.2549029489     0.8574074599     0.8625639342
   19      S      -3.8033048457    -0.3601828439    -1.3454131537
   20      C      -4.6607492018     0.9949978775     0.6710239269
   21      C      -5.1041341726     0.3812345694    -0.4717138252
   22      H      -5.3153029977     1.5166515521     1.3599729688
   23      H      -6.1147568686     0.3228153202    -0.8525768816
 ----------------------------------------------------------------

    9   -1656.6631197971      7.40E-09 Convergence criterion met
 Total energy in the final basis set = -1656.6631197971
 Final energy is   -1656.66311979705
 **  OPTIMIZATION CONVERGED  **

                    Orbital Energies (a.u.)
 --------------------------------------------------------------

 Alpha MOs
 -- Occupied --
-88.921 -88.921 -88.921 -10.241 -10.240 -10.240 -10.239 -10.226
-10.226 -10.206 -10.206 -10.206 -10.205 -10.205 -10.205  -7.981
 -7.981  -7.980  -5.945  -5.945  -5.945  -5.941  -5.941  -5.941
 -5.938  -5.938  -5.937  -0.906  -0.892  -0.876  -0.786  -0.755
 -0.745  -0.744  -0.733  -0.697  -0.617  -0.596  -0.570  -0.561
 -0.536  -0.535  -0.528  -0.501  -0.462  -0.422  -0.420  -0.417
 -0.415  -0.407  -0.402  -0.401  -0.385  -0.377  -0.370  -0.360
 -0.350  -0.345  -0.290  -0.266  -0.263  -0.261  -0.247  -0.206

          Ground-State Mulliken Net Atomic Charges

     Atom                 Charge (a.u.)
  ----------------------------------------
      1 H                     0.196226
      2 H                     0.119423
      3 C                     0.036464
      4 C                    -0.396321
      5 S                    -0.112689
      6 C                     0.530829
      7 H                     0.126821
      8 C                    -0.468476
      9 H                     0.118605
     10 C                    -0.029350
     11 C                    -0.195626
     12 S                    -0.142580
     13 C                     0.182276
     14 H                     0.133671
     15 C                    -0.134232
     16 C                    -0.478596
     17 H                     0.141415
     18 C                     0.400566
     19 S                    -0.015694
     20 C                    -0.367742
     21 C                     0.043034
     22 H                     0.118078
     23 H                     0.193896
  ----------------------------------------
  Sum of atomic charges =     0.000000

                    Cartesian Multipole Moments
 -----------------------------------------------------------------
    Charge (ESU x 10^10)
                 0.0000
    Dipole Moment (Debye)
         X      -0.0397      Y       0.2489      Z       0.3373
       Tot       0.4210
    Quadrupole Moments (Debye-Ang)
        XX     -90.2776     XY       0.2396     YY    -104.6314
        XZ      -0.3917     YZ       3.0198     ZZ    -112.5875

 Total job time:  115.93s(wall), 123.42s(cpu)
        *  Thank you very much for using Q-Chem.  Have a nice day.  *
