 Q-Chem 4.4, Q-Chem, Inc., Pleasanton, CA (2016)
 Q-Chem 4.4.2 for Intel X86 EM64T Linux

User input:
--------------------------------------------------------------
$molecule
 0  1
 H           6.23254100       -0.22338900        0.17638100
 H           5.29752400        2.22850500       -0.10953100
 C           5.19733500        0.07486000        0.08356300
 C           4.68347900        1.33634400       -0.06443600
 S           3.94559900       -1.12581000        0.11905200
 C           3.26267300        1.34659400       -0.16511200
 H           2.67740100        2.24810800       -0.30841700
 C           2.69562400        0.08941900       -0.09094600
 H           1.33241900       -2.39005500       -0.68762600
 C           1.29739300       -0.28590200       -0.16150800
 C           0.73808300       -1.51455700       -0.45078400
 S           0.03601800        0.89451200        0.14982500
 C          -0.68041100       -1.51067300       -0.44936800
 H          -1.28012400       -2.38277100       -0.68510300
 C          -1.23220500       -0.27900200       -0.15852500
 C          -2.62830100        0.10383400       -0.08465000
 H          -2.57419058        2.21523737        0.41187357
 C          -3.17682436        1.33742789        0.20670283
 S          -3.90118697       -1.06825650       -0.38312262
 C          -4.60100365        1.34667276        0.18137228
 C          -5.13555405        0.12417156       -0.13014026
 H          -5.20179541        2.22737506        0.37747033
 H          -6.17718283       -0.15033892       -0.22432489
$end

$rem
         jobtype = opt
        exchange = b3lyp
           basis = 6-31++g**
  max_scf_cycles = 150
      mem_static = 281
       mem_total = 2818
      sym_ignore = true
        symmetry = false
          thresh = 12
$end

$opt
CONSTRAINT
tors 13 15 16 18 180.0
ENDCONSTRAINT
$end

--------------------------------------------------------------

   15   -1656.6641876061      4.99E-09 Convergence criterion met
 Total energy in the final basis set = -1656.6641876061
   11   -1656.6642325707      5.29E-09 Convergence criterion met
 Total energy in the final basis set = -1656.6642325707
   10   -1656.6642408158      6.86E-09 Convergence criterion met
 Total energy in the final basis set = -1656.6642408158
    9   -1656.6642424561      8.29E-09 Convergence criterion met
 Total energy in the final basis set = -1656.6642424561

             Standard Nuclear Orientation (Angstroms)
    I     Atom           X                Y                Z
 ----------------------------------------------------------------
    1      H       6.2309888919    -0.2297397772     0.1940778117
    2      H       5.3027855945     2.2243470360    -0.0946348264
    3      C       5.1969286640     0.0707270175     0.0957680300
    4      C       4.6865958978     1.3334477181    -0.0541749536
    5      S       3.9425106688    -1.1273218673     0.1227353588
    6      C       3.2665052262     1.3468054240    -0.1636442739
    7      H       2.6841500860     2.2497928073    -0.3096461295
    8      C       2.6963077915     0.0907280353    -0.0942495971
    9      H       1.3320029379    -2.3889201689    -0.6904409953
   10      C       1.2982184139    -0.2819079850    -0.1753848968
   11      C       0.7383619571    -1.5101510175    -0.4643847116
   12      S       0.0370541810     0.9039163445     0.1172264889
   13      C      -0.6796235202    -1.5054264643    -0.4626107320
   14      H      -1.2772342791    -2.3845630136    -0.6768351763
   15      C      -1.2329312734    -0.2728546655    -0.1764386910
   16      C      -2.6288379183     0.1067537185    -0.0983055349
   17      H      -2.5798329550     2.2200805688     0.3975664511
   18      C      -3.1792815413     1.3409827717     0.1882807261
   19      S      -3.9026073372    -1.0697823370    -0.3803742312
   20      C      -4.6034898260     1.3456494256     0.1816927486
   21      C      -5.1377925023     0.1182705682    -0.1088748596
   22      H      -5.2041314988     2.2246946952     0.3854756107
   23      H      -6.1793375091    -0.1632226146    -0.1801773765
 ----------------------------------------------------------------

    9   -1656.6642432238      8.03E-09 Convergence criterion met
 Total energy in the final basis set = -1656.6642432238
 Final energy is   -1656.66424322376
 **  OPTIMIZATION CONVERGED  **

                    Orbital Energies (a.u.)
 --------------------------------------------------------------

 Alpha MOs
 -- Occupied --
-88.921 -88.921 -88.921 -10.242 -10.242 -10.241 -10.241 -10.227
-10.227 -10.207 -10.206 -10.206 -10.206 -10.205 -10.205  -7.981
 -7.981  -7.981  -5.945  -5.945  -5.945  -5.941  -5.941  -5.941
 -5.938  -5.938  -5.937  -0.907  -0.893  -0.877  -0.788  -0.757
 -0.746  -0.745  -0.732  -0.698  -0.619  -0.598  -0.570  -0.560
 -0.536  -0.535  -0.530  -0.502  -0.462  -0.423  -0.422  -0.417
 -0.416  -0.409  -0.402  -0.397  -0.389  -0.379  -0.371  -0.362
 -0.350  -0.343  -0.299  -0.269  -0.263  -0.259  -0.250  -0.200

          Ground-State Mulliken Net Atomic Charges

     Atom                 Charge (a.u.)
  ----------------------------------------
      1 H                     0.195857
      2 H                     0.119519
      3 C                     0.007406
      4 C                    -0.350898
      5 S                    -0.071762
      6 C                     0.533957
      7 H                     0.133814
      8 C                    -0.355596
      9 H                     0.125704
     10 C                    -0.224931
     11 C                     0.119987
     12 S                    -0.390496
     13 C                    -0.052054
     14 H                     0.113259
     15 C                    -0.171658
     16 C                    -0.321822
     17 H                     0.121290
     18 C                     0.555536
     19 S                    -0.122965
     20 C                    -0.296245
     21 C                     0.010066
     22 H                     0.122463
     23 H                     0.199570
  ----------------------------------------
  Sum of atomic charges =     0.000000

                    Cartesian Multipole Moments
 -----------------------------------------------------------------
    Charge (ESU x 10^10)
                 0.0000
    Dipole Moment (Debye)
         X       0.0175      Y       0.5360      Z      -0.0938
       Tot       0.5445
    Quadrupole Moments (Debye-Ang)
        XX     -90.3965     XY      -0.0000     YY    -100.9784
        XZ      -0.1145     YZ       1.9814     ZZ    -116.3070

 Total job time:  79.41s(wall), 84.17s(cpu)
        *  Thank you very much for using Q-Chem.  Have a nice day.  *
