 Q-Chem 4.4, Q-Chem, Inc., Pleasanton, CA (2016)
 Q-Chem 4.4.2 for Intel X86 EM64T Linux

User input:
--------------------------------------------------------------
$molecule
 0  1
 H           6.23254100       -0.22338900        0.17638100
 H           5.29752400        2.22850500       -0.10953100
 C           5.19733500        0.07486000        0.08356300
 C           4.68347900        1.33634400       -0.06443600
 S           3.94559900       -1.12581000        0.11905200
 C           3.26267300        1.34659400       -0.16511200
 H           2.67740100        2.24810800       -0.30841700
 C           2.69562400        0.08941900       -0.09094600
 H           1.33241900       -2.39005500       -0.68762600
 C           1.29739300       -0.28590200       -0.16150800
 C           0.73808300       -1.51455700       -0.45078400
 S           0.03601800        0.89451200        0.14982500
 C          -0.68041100       -1.51067300       -0.44936800
 H          -1.28012400       -2.38277100       -0.68510300
 C          -1.23220500       -0.27900200       -0.15852500
 C          -2.62830100        0.10383400       -0.08465000
 H          -3.70045371       -1.78074251       -0.16432263
 C          -3.75171571       -0.69937111       -0.10251585
 S          -3.09421752        1.79172091        0.04604175
 C          -4.97232983        0.02802535       -0.00246932
 C          -4.77906622        1.38109599        0.09314663
 H          -5.95180859       -0.43626878        0.00722806
 H          -5.52144577        2.16179448        0.18588131
$end

$rem
         jobtype = opt
        exchange = b3lyp
           basis = 6-31++g**
  max_scf_cycles = 150
      mem_static = 281
       mem_total = 2818
      sym_ignore = true
        symmetry = false
          thresh = 12
$end

$opt
CONSTRAINT
tors 13 15 16 18 10.0
ENDCONSTRAINT
$end

--------------------------------------------------------------

   16   -1656.6625502761      2.57E-09 Convergence criterion met
 Total energy in the final basis set = -1656.6625502761
   13   -1656.6627959235      2.42E-09 Convergence criterion met
 Total energy in the final basis set = -1656.6627959235
   11   -1656.6628164116      5.52E-09 Convergence criterion met
 Total energy in the final basis set = -1656.6628164116
   10   -1656.6628234078      6.57E-09 Convergence criterion met
 Total energy in the final basis set = -1656.6628234078
   10   -1656.6628294141      9.40E-09 Convergence criterion met
 Total energy in the final basis set = -1656.6628294141
   10   -1656.6628323112      7.21E-09 Convergence criterion met
 Total energy in the final basis set = -1656.6628323112

             Standard Nuclear Orientation (Angstroms)
    I     Atom           X                Y                Z
 ----------------------------------------------------------------
    1      H       6.2369485919    -0.2693834043     0.1726237709
    2      H       5.3327699739     2.1962788117    -0.0950964871
    3      C       5.2055750722     0.0427519171     0.0828668884
    4      C       4.7075652818     1.3116111029    -0.0561099192
    5      S       3.9384475819    -1.1422417330     0.1102193538
    6      C       3.2870397398     1.3407587501    -0.1564514544
    7      H       2.7132586506     2.2506229312    -0.2934180571
    8      C       2.7040607685     0.0904011818    -0.0910923003
    9      H       1.3049348024    -2.3669303167    -0.7058531127
   10      C       1.3013547791    -0.2660233019    -0.1649299195
   11      C       0.7233048713    -1.4840776200    -0.4645148268
   12      S       0.0566906879     0.9295993173     0.1488883085
   13      C      -0.6938569194    -1.4595655433    -0.4649328123
   14      H      -1.3035783638    -2.3224635704    -0.7055833462
   15      C      -1.2294023618    -0.2205801028    -0.1678228296
   16      C      -2.6305831726     0.1443830469    -0.0700888864
   17      H      -3.6400161125    -1.7776981919    -0.0981144600
   18      C      -3.7268965301    -0.6979737711    -0.0651067244
   19      S      -3.1571661371     1.8164096776     0.0119805070
   20      C      -4.9709780956    -0.0109133117     0.0118432543
   21      C      -4.8267000665     1.3512045110     0.0663062060
   22      H      -5.9337561783    -0.5086401492     0.0338455153
   23      H      -5.5950062137     2.1087410986     0.1363462817
 ----------------------------------------------------------------

   10   -1656.6628331840      3.26E-09 Convergence criterion met
 Total energy in the final basis set = -1656.6628331840
 Final energy is   -1656.66283318398
 **  OPTIMIZATION CONVERGED  **

                    Orbital Energies (a.u.)
 --------------------------------------------------------------

 Alpha MOs
 -- Occupied --
-88.922 -88.921 -88.921 -10.242 -10.241 -10.241 -10.240 -10.226
-10.226 -10.207 -10.206 -10.206 -10.206 -10.205 -10.204  -7.981
 -7.981  -7.980  -5.945  -5.945  -5.945  -5.942  -5.941  -5.941
 -5.938  -5.938  -5.937  -0.907  -0.892  -0.876  -0.788  -0.757
 -0.745  -0.745  -0.734  -0.697  -0.618  -0.597  -0.569  -0.564
 -0.538  -0.533  -0.530  -0.499  -0.463  -0.423  -0.421  -0.419
 -0.416  -0.409  -0.401  -0.397  -0.388  -0.376  -0.370  -0.363
 -0.352  -0.342  -0.298  -0.269  -0.263  -0.259  -0.250  -0.199

          Ground-State Mulliken Net Atomic Charges

     Atom                 Charge (a.u.)
  ----------------------------------------
      1 H                     0.194835
      2 H                     0.119937
      3 C                     0.009677
      4 C                    -0.367956
      5 S                    -0.068116
      6 C                     0.406243
      7 H                     0.126994
      8 C                    -0.269225
      9 H                     0.121801
     10 C                    -0.141981
     11 C                    -0.022885
     12 S                    -0.300154
     13 C                     0.098334
     14 H                     0.106971
     15 C                    -0.105920
     16 C                    -0.189911
     17 H                     0.107652
     18 C                     0.282378
     19 S                    -0.096703
     20 C                    -0.343598
     21 C                     0.009827
     22 H                     0.120539
     23 H                     0.201261
  ----------------------------------------
  Sum of atomic charges =     0.000000

                    Cartesian Multipole Moments
 -----------------------------------------------------------------
    Charge (ESU x 10^10)
                 0.0000
    Dipole Moment (Debye)
         X      -0.2614      Y      -0.4378      Z      -0.2368
       Tot       0.5622
    Quadrupole Moments (Debye-Ang)
        XX     -89.2262     XY       2.4024     YY    -100.8595
        XZ      -0.0690     YZ       1.1948     ZZ    -116.4701

 Total job time:  115.86s(wall), 123.07s(cpu)
        *  Thank you very much for using Q-Chem.  Have a nice day.  *
