 Q-Chem 4.4, Q-Chem, Inc., Pleasanton, CA (2016)
 Q-Chem 4.4.2 for Intel X86 EM64T Linux

User input:
--------------------------------------------------------------
$molecule
 0  1
 H           6.23254100       -0.22338900        0.17638100
 H           5.29752400        2.22850500       -0.10953100
 C           5.19733500        0.07486000        0.08356300
 C           4.68347900        1.33634400       -0.06443600
 S           3.94559900       -1.12581000        0.11905200
 C           3.26267300        1.34659400       -0.16511200
 H           2.67740100        2.24810800       -0.30841700
 C           2.69562400        0.08941900       -0.09094600
 H           1.33241900       -2.39005500       -0.68762600
 C           1.29739300       -0.28590200       -0.16150800
 C           0.73808300       -1.51455700       -0.45078400
 S           0.03601800        0.89451200        0.14982500
 C          -0.68041100       -1.51067300       -0.44936800
 H          -1.28012400       -2.38277100       -0.68510300
 C          -1.23220500       -0.27900200       -0.15852500
 C          -2.62830100        0.10383400       -0.08465000
 H          -3.67890816       -1.77279527        0.20166272
 C          -3.74107447       -0.69661220        0.08428583
 S          -3.10926977        1.78742874       -0.21617398
 C          -4.96508166        0.03117210        0.11820018
 C          -4.78492032        1.38209512       -0.02266246
 H          -5.93714295       -0.42981966        0.25095999
 H          -5.53222621        2.16358798       -0.02714267
$end

$rem
         jobtype = opt
        exchange = b3lyp
           basis = 6-31++g**
  max_scf_cycles = 150
      mem_static = 281
       mem_total = 2818
      sym_ignore = true
        symmetry = false
          thresh = 12
$end

$opt
CONSTRAINT
tors 13 15 16 18 20.0
ENDCONSTRAINT
$end

--------------------------------------------------------------

   16   -1656.6628783968      2.55E-09 Convergence criterion met
 Total energy in the final basis set = -1656.6628783968
   12   -1656.6631037424      8.29E-09 Convergence criterion met
 Total energy in the final basis set = -1656.6631037424
   11   -1656.6631400949      9.96E-09 Convergence criterion met
 Total energy in the final basis set = -1656.6631400949
   11   -1656.6631547818      5.24E-09 Convergence criterion met
 Total energy in the final basis set = -1656.6631547818
   11   -1656.6631640990      5.02E-09 Convergence criterion met
 Total energy in the final basis set = -1656.6631640990
   10   -1656.6631667510      5.83E-09 Convergence criterion met
 Total energy in the final basis set = -1656.6631667510

             Standard Nuclear Orientation (Angstroms)
    I     Atom           X                Y                Z
 ----------------------------------------------------------------
    1      H       6.2355360048    -0.2738838365     0.1775327163
    2      H       5.3349515734     2.1928011376    -0.0928963662
    3      C       5.2046821228     0.0395684935     0.0863491753
    4      C       4.7085387986     1.3089875565    -0.0540630548
    5      S       3.9359551854    -1.1436652142     0.1132561022
    6      C       3.2880936058     1.3399087961    -0.1557443230
    7      H       2.7155559788     2.2504410101    -0.2934595236
    8      C       2.7034998106     0.0904323464    -0.0901391764
    9      H       1.3036536022    -2.3653074815    -0.7048185157
   10      C       1.3000493108    -0.2643423589    -0.1643106345
   11      C       0.7220283226    -1.4825788833    -0.4629513357
   12      S       0.0562554822     0.9326263226     0.1483551555
   13      C      -0.6957341198    -1.4561481418    -0.4690682746
   14      H      -1.3083952545    -2.3136019954    -0.7218499620
   15      C      -1.2293533444    -0.2167947154    -0.1738297880
   16      C      -2.6302946282     0.1489751412    -0.0748968309
   17      H      -3.6043238028    -1.7552849541     0.2855960603
   18      C      -3.7109262243    -0.6890186344     0.1230711299
   19      S      -3.1779193817     1.8059841437    -0.2620842820
   20      C      -4.9619366415    -0.0090723947     0.1330882798
   21      C      -4.8358964511     1.3431201740    -0.0530431314
   22      H      -5.9149226332    -0.5030778000     0.2850296389
   23      H      -5.6126728566     2.0950050986    -0.0771784498
 ----------------------------------------------------------------

    9   -1656.6631672426      6.18E-09 Convergence criterion met
 Total energy in the final basis set = -1656.6631672426
 Final energy is   -1656.66316724259
 **  OPTIMIZATION CONVERGED  **

                    Orbital Energies (a.u.)
 --------------------------------------------------------------

 Alpha MOs
 -- Occupied --
-88.922 -88.921 -88.921 -10.241 -10.241 -10.241 -10.240 -10.226
-10.226 -10.207 -10.206 -10.206 -10.206 -10.205 -10.205  -7.981
 -7.981  -7.980  -5.945  -5.945  -5.945  -5.942  -5.941  -5.941
 -5.938  -5.938  -5.937  -0.907  -0.892  -0.876  -0.788  -0.756
 -0.745  -0.745  -0.734  -0.697  -0.617  -0.596  -0.569  -0.564
 -0.537  -0.533  -0.530  -0.499  -0.463  -0.423  -0.421  -0.419
 -0.416  -0.409  -0.402  -0.397  -0.387  -0.376  -0.370  -0.362
 -0.352  -0.343  -0.296  -0.268  -0.263  -0.260  -0.250  -0.201

          Ground-State Mulliken Net Atomic Charges

     Atom                 Charge (a.u.)
  ----------------------------------------
      1 H                     0.195401
      2 H                     0.119982
      3 C                     0.017165
      4 C                    -0.369922
      5 S                    -0.088324
      6 C                     0.423378
      7 H                     0.124726
      8 C                    -0.275609
      9 H                     0.123746
     10 C                    -0.154997
     11 C                     0.014329
     12 S                    -0.232307
     13 C                     0.081846
     14 H                     0.116538
     15 C                    -0.215771
     16 C                    -0.241756
     17 H                     0.123358
     18 C                     0.315592
     19 S                    -0.098641
     20 C                    -0.326171
     21 C                     0.027956
     22 H                     0.120338
     23 H                     0.199141
  ----------------------------------------
  Sum of atomic charges =     0.000000

                    Cartesian Multipole Moments
 -----------------------------------------------------------------
    Charge (ESU x 10^10)
                 0.0000
    Dipole Moment (Debye)
         X      -0.2485      Y      -0.4292      Z      -0.1414
       Tot       0.5157
    Quadrupole Moments (Debye-Ang)
        XX     -89.2907     XY       2.3174     YY    -100.9694
        XZ      -0.4960     YZ       0.2750     ZZ    -116.3367

 Total job time:  115.97s(wall), 123.66s(cpu)
        *  Thank you very much for using Q-Chem.  Have a nice day.  *
