 Q-Chem 4.4, Q-Chem, Inc., Pleasanton, CA (2016)
 Q-Chem 4.4.2 for Intel X86 EM64T Linux

User input:
--------------------------------------------------------------
$molecule
 0  1
 H           6.23254100       -0.22338900        0.17638100
 H           5.29752400        2.22850500       -0.10953100
 C           5.19733500        0.07486000        0.08356300
 C           4.68347900        1.33634400       -0.06443600
 S           3.94559900       -1.12581000        0.11905200
 C           3.26267300        1.34659400       -0.16511200
 H           2.67740100        2.24810800       -0.30841700
 C           2.69562400        0.08941900       -0.09094600
 H           1.33241900       -2.39005500       -0.68762600
 C           1.29739300       -0.28590200       -0.16150800
 C           0.73808300       -1.51455700       -0.45078400
 S           0.03601800        0.89451200        0.14982500
 C          -0.68041100       -1.51067300       -0.44936800
 H          -1.28012400       -2.38277100       -0.68510300
 C          -1.23220500       -0.27900200       -0.15852500
 C          -2.62830100        0.10383400       -0.08465000
 H          -2.83650467        1.64617837       -1.59637513
 C          -3.30883812        1.05419234       -0.82031738
 S          -3.71527204       -0.66834231        1.05787284
 C          -4.68825170        1.15611937       -0.47996050
 C          -5.05762338        0.28469474        0.51073475
 H          -5.37815628        1.84197104       -0.95816640
 H          -6.03376993        0.14518064        0.95445874
$end

$rem
         jobtype = opt
        exchange = b3lyp
           basis = 6-31++g**
  max_scf_cycles = 150
      mem_static = 281
       mem_total = 2818
      sym_ignore = true
        symmetry = false
          thresh = 12
$end

$opt
CONSTRAINT
tors 13 15 16 18 -120.0
ENDCONSTRAINT
$end

--------------------------------------------------------------

   15   -1656.6620076247      8.90E-09 Convergence criterion met
 Total energy in the final basis set = -1656.6620076247
   11   -1656.6621893365      8.92E-09 Convergence criterion met
 Total energy in the final basis set = -1656.6621893365
   12   -1656.6622557722      3.19E-09 Convergence criterion met
 Total energy in the final basis set = -1656.6622557722
   12   -1656.6622976623      3.54E-09 Convergence criterion met
 Total energy in the final basis set = -1656.6622976623
   12   -1656.6623185570      2.77E-09 Convergence criterion met
 Total energy in the final basis set = -1656.6623185570
   10   -1656.6623220179      5.08E-09 Convergence criterion met
 Total energy in the final basis set = -1656.6623220179

             Standard Nuclear Orientation (Angstroms)
    I     Atom           X                Y                Z
 ----------------------------------------------------------------
    1      H       6.2386490928    -0.2258387909     0.1156496833
    2      H       5.3031836634     2.2252622035    -0.1771687681
    3      C       5.2024937407     0.0736957549     0.0387007030
    4      C       4.6885440871     1.3347211439    -0.1122760333
    5      S       3.9491154424    -1.1236502618     0.1089798228
    6      C       3.2659060348     1.3467128439    -0.1869502517
    7      H       2.6796457625     2.2481453501    -0.3268683711
    8      C       2.6983814524     0.0919046145    -0.0902730000
    9      H       1.3242823768    -2.3849680041    -0.6631562295
   10      C       1.2965817617    -0.2814053256    -0.1323533785
   11      C       0.7335716321    -1.5112543740    -0.4108574636
   12      S       0.0417619690     0.8965464537     0.2010067463
   13      C      -0.6866243014    -1.5081274349    -0.3815521274
   14      H      -1.2974701452    -2.3746905004    -0.6082222199
   15      C      -1.2295396629    -0.2808798040    -0.0703557534
   16      C      -2.6318270913     0.1197057657    -0.0253969692
   17      H      -2.7550599008     1.7341730129    -1.4600903658
   18      C      -3.2746811374     1.0987119027    -0.7517419444
   19      S      -3.7785001704    -0.7383785595     0.9876388058
   20      C      -4.6756204050     1.1671951116    -0.4952364140
   21      C      -5.0951073616     0.2324642883     0.4155255201
   22      H      -5.3437277288     1.8722525861    -0.9766211515
   23      H      -6.0973272310     0.0577132134     0.7826810803
 ----------------------------------------------------------------

    9   -1656.6623224407      6.56E-09 Convergence criterion met
 Total energy in the final basis set = -1656.6623224407
 Final energy is   -1656.66232244071
 **  OPTIMIZATION CONVERGED  **

                    Orbital Energies (a.u.)
 --------------------------------------------------------------

 Alpha MOs
 -- Occupied --
-88.921 -88.921 -88.921 -10.241 -10.240 -10.239 -10.238 -10.226
-10.226 -10.206 -10.206 -10.205 -10.205 -10.205 -10.205  -7.981
 -7.980  -7.980  -5.945  -5.945  -5.944  -5.941  -5.941  -5.941
 -5.938  -5.938  -5.937  -0.906  -0.892  -0.876  -0.786  -0.755
 -0.745  -0.744  -0.733  -0.697  -0.616  -0.595  -0.569  -0.561
 -0.537  -0.535  -0.528  -0.501  -0.462  -0.421  -0.420  -0.417
 -0.415  -0.407  -0.403  -0.399  -0.385  -0.376  -0.370  -0.359
 -0.351  -0.345  -0.285  -0.266  -0.262  -0.260  -0.248  -0.208

          Ground-State Mulliken Net Atomic Charges

     Atom                 Charge (a.u.)
  ----------------------------------------
      1 H                     0.196509
      2 H                     0.118895
      3 C                     0.037079
      4 C                    -0.413801
      5 S                    -0.125715
      6 C                     0.535926
      7 H                     0.127650
      8 C                    -0.359868
      9 H                     0.124861
     10 C                    -0.147096
     11 C                    -0.099969
     12 S                    -0.057955
     13 C                     0.057641
     14 H                     0.129014
     15 C                    -0.076053
     16 C                    -0.468365
     17 H                     0.141416
     18 C                     0.329638
     19 S                     0.047194
     20 C                    -0.431711
     21 C                     0.024034
     22 H                     0.117494
     23 H                     0.193180
  ----------------------------------------
  Sum of atomic charges =     0.000000

                    Cartesian Multipole Moments
 -----------------------------------------------------------------
    Charge (ESU x 10^10)
                 0.0000
    Dipole Moment (Debye)
         X      -0.0464      Y       0.4133      Z      -0.6845
       Tot       0.8010
    Quadrupole Moments (Debye-Ang)
        XX     -90.3594     XY       0.0466     YY    -103.1054
        XZ       0.3206     YZ      -1.8269     ZZ    -113.8997

 Total job time:  116.80s(wall), 123.70s(cpu)
        *  Thank you very much for using Q-Chem.  Have a nice day.  *
