 Q-Chem 4.4, Q-Chem, Inc., Pleasanton, CA (2016)
 Q-Chem 4.4.2 for Intel X86 EM64T Linux

User input:
--------------------------------------------------------------
$molecule
 0  1
 H           6.23254100       -0.22338900        0.17638100
 H           5.29752400        2.22850500       -0.10953100
 C           5.19733500        0.07486000        0.08356300
 C           4.68347900        1.33634400       -0.06443600
 S           3.94559900       -1.12581000        0.11905200
 C           3.26267300        1.34659400       -0.16511200
 H           2.67740100        2.24810800       -0.30841700
 C           2.69562400        0.08941900       -0.09094600
 H           1.33241900       -2.39005500       -0.68762600
 C           1.29739300       -0.28590200       -0.16150800
 C           0.73808300       -1.51455700       -0.45078400
 S           0.03601800        0.89451200        0.14982500
 C          -0.68041100       -1.51067300       -0.44936800
 H          -1.28012400       -2.38277100       -0.68510300
 C          -1.23220500       -0.27900200       -0.15852500
 C          -2.62830100        0.10383400       -0.08465000
 H          -3.35505734       -0.88213119        1.70621171
 C          -3.57711230       -0.24750286        0.85547646
 S          -3.33985661        1.15523296       -1.29765024
 C          -4.85776320        0.32706272        0.61294517
 C          -4.88378454        1.11513659       -0.50757072
 H          -5.72028204        0.16822381        1.25002693
 H          -5.71412669        1.67234579       -0.91899152
$end

$rem
         jobtype = opt
        exchange = b3lyp
           basis = 6-31++g**
  max_scf_cycles = 150
      mem_static = 281
       mem_total = 2818
      sym_ignore = true
        symmetry = false
          thresh = 12
$end

$opt
CONSTRAINT
tors 13 15 16 18 70.0
ENDCONSTRAINT
$end

--------------------------------------------------------------

   15   -1656.6608108713      9.02E-09 Convergence criterion met
 Total energy in the final basis set = -1656.6608108713
   12   -1656.6610970733      3.62E-09 Convergence criterion met
 Total energy in the final basis set = -1656.6610970733
   11   -1656.6611327811      5.19E-09 Convergence criterion met
 Total energy in the final basis set = -1656.6611327811
   10   -1656.6611431422      6.50E-09 Convergence criterion met
 Total energy in the final basis set = -1656.6611431422
   10   -1656.6611497090      9.17E-09 Convergence criterion met
 Total energy in the final basis set = -1656.6611497090
   10   -1656.6611514707      5.91E-09 Convergence criterion met
 Total energy in the final basis set = -1656.6611514707

             Standard Nuclear Orientation (Angstroms)
    I     Atom           X                Y                Z
 ----------------------------------------------------------------
    1      H       6.2351633924    -0.2380727077     0.2027732396
    2      H       5.3194408120     2.2139471402    -0.1395485428
    3      C       5.2025862565     0.0655095776     0.0984345762
    4      C       4.6988604497     1.3272509433    -0.0789142561
    5      S       3.9418233603    -1.1246703144     0.1529631251
    6      C       3.2783858052     1.3452940123    -0.1869733379
    7      H       2.6999362777     2.2477170532    -0.3509369751
    8      C       2.7025865751     0.0945860900    -0.0891122710
    9      H       1.3310035134    -2.3817017405    -0.6686754931
   10      C       1.2998196736    -0.2726753153    -0.1606200950
   11      C       0.7386343591    -1.5027893976    -0.4393487135
   12      S       0.0444028361     0.9146856558     0.1323435879
   13      C      -0.6827414311    -1.4926759813    -0.4382121574
   14      H      -1.2948634501    -2.3578658383    -0.6661974839
   15      C      -1.2271479375    -0.2629768653    -0.1451795746
   16      C      -2.6400707209     0.1122773107    -0.0913981703
   17      H      -3.3466629058    -0.9209367103     1.6682547543
   18      C      -3.5830075769    -0.2651085185     0.8380642011
   19      S      -3.3501673285     1.2047996136    -1.2686844917
   20      C      -4.8718286070     0.3004859854     0.6034421554
   21      C      -4.8977804481     1.1202647577    -0.4945184044
   22      H      -5.7368825765     0.1138249771     1.2296824318
   23      H      -5.7344250488     1.6772150922    -0.8943753146
 ----------------------------------------------------------------

   10   -1656.6611520604      3.83E-09 Convergence criterion met
 Total energy in the final basis set = -1656.6611520604
 Final energy is   -1656.66115206044
 **  OPTIMIZATION CONVERGED  **

                    Orbital Energies (a.u.)
 --------------------------------------------------------------

 Alpha MOs
 -- Occupied --
-88.921 -88.921 -88.920 -10.241 -10.240 -10.238 -10.237 -10.226
-10.226 -10.206 -10.206 -10.205 -10.205 -10.205 -10.204  -7.981
 -7.980  -7.980  -5.945  -5.944  -5.944  -5.941  -5.940  -5.940
 -5.938  -5.937  -5.937  -0.906  -0.891  -0.876  -0.785  -0.754
 -0.745  -0.743  -0.733  -0.697  -0.615  -0.593  -0.568  -0.564
 -0.537  -0.534  -0.527  -0.499  -0.463  -0.421  -0.419  -0.417
 -0.415  -0.407  -0.402  -0.400  -0.383  -0.375  -0.370  -0.358
 -0.352  -0.345  -0.282  -0.267  -0.262  -0.259  -0.247  -0.211

          Ground-State Mulliken Net Atomic Charges

     Atom                 Charge (a.u.)
  ----------------------------------------
      1 H                     0.196409
      2 H                     0.119164
      3 C                     0.031263
      4 C                    -0.412908
      5 S                    -0.129466
      6 C                     0.581062
      7 H                     0.129352
      8 C                    -0.437570
      9 H                     0.125221
     10 C                    -0.061881
     11 C                    -0.075525
     12 S                    -0.088398
     13 C                     0.105336
     14 H                     0.130622
     15 C                    -0.310067
     16 C                    -0.486567
     17 H                     0.151995
     18 C                     0.507546
     19 S                     0.001970
     20 C                    -0.460197
     21 C                     0.066763
     22 H                     0.118676
     23 H                     0.197197
  ----------------------------------------
  Sum of atomic charges =     0.000000

                    Cartesian Multipole Moments
 -----------------------------------------------------------------
    Charge (ESU x 10^10)
                 0.0000
    Dipole Moment (Debye)
         X      -0.1406      Y      -0.1854      Z       0.1940
       Tot       0.3029
    Quadrupole Moments (Debye-Ang)
        XX     -89.8988     XY       0.8862     YY    -103.9971
        XZ      -1.5497     YZ      -1.6167     ZZ    -112.8315

 Total job time:  113.73s(wall), 120.39s(cpu)
        *  Thank you very much for using Q-Chem.  Have a nice day.  *
