 Q-Chem 4.4, Q-Chem, Inc., Pleasanton, CA (2016)
 Q-Chem 4.4.2 for Intel X86 EM64T Linux

User input:
--------------------------------------------------------------
$molecule
 0  1
 H           6.23254100       -0.22338900        0.17638100
 H           5.29752400        2.22850500       -0.10953100
 C           5.19733500        0.07486000        0.08356300
 C           4.68347900        1.33634400       -0.06443600
 S           3.94559900       -1.12581000        0.11905200
 C           3.26267300        1.34659400       -0.16511200
 H           2.67740100        2.24810800       -0.30841700
 C           2.69562400        0.08941900       -0.09094600
 H           1.33241900       -2.39005500       -0.68762600
 C           1.29739300       -0.28590200       -0.16150800
 C           0.73808300       -1.51455700       -0.45078400
 S           0.03601800        0.89451200        0.14982500
 C          -0.68041100       -1.51067300       -0.44936800
 H          -1.28012400       -2.38277100       -0.68510300
 C          -1.23220500       -0.27900200       -0.15852500
 C          -2.62830100        0.10383400       -0.08465000
 H          -3.21457916        0.37541343       -2.15588401
 C          -3.50145532        0.40780055       -1.11067344
 S          -3.44477827        0.23972201        1.46390418
 C          -4.81305113        0.73623455       -0.66249792
 C          -4.93895004        0.68080178        0.70072256
 H          -5.63025544        0.99371568       -1.32651771
 H          -5.81546518        0.87387194        1.30376681
$end

$rem
         jobtype = opt
        exchange = b3lyp
           basis = 6-31++g**
  max_scf_cycles = 150
      mem_static = 281
       mem_total = 2818
      sym_ignore = true
        symmetry = false
          thresh = 12
$end

$opt
CONSTRAINT
tors 13 15 16 18 -80.0
ENDCONSTRAINT
$end

--------------------------------------------------------------

   15   -1656.6600649319      5.09E-09 Convergence criterion met
 Total energy in the final basis set = -1656.6600649319
   11   -1656.6604190657      8.67E-09 Convergence criterion met
 Total energy in the final basis set = -1656.6604190657
   11   -1656.6604571581      4.16E-09 Convergence criterion met
 Total energy in the final basis set = -1656.6604571581
   10   -1656.6604651485      4.02E-09 Convergence criterion met
 Total energy in the final basis set = -1656.6604651485
   10   -1656.6604683726      3.88E-09 Convergence criterion met
 Total energy in the final basis set = -1656.6604683726
   10   -1656.6604694864      3.74E-09 Convergence criterion met
 Total energy in the final basis set = -1656.6604694864

             Standard Nuclear Orientation (Angstroms)
    I     Atom           X                Y                Z
 ----------------------------------------------------------------
    1      H       6.2348224515    -0.2345463960     0.1991897469
    2      H       5.3124809414     2.2216730708    -0.0914066966
    3      C       5.2016243909     0.0681540159     0.0984038644
    4      C       4.6945314521     1.3319391820    -0.0523523735
    5      S       3.9445214036    -1.1267589707     0.1228396169
    6      C       3.2742185193     1.3479096573    -0.1639778080
    7      H       2.6934815021     2.2519992641    -0.3095999455
    8      C       2.7020328789     0.0938047748    -0.0949791099
    9      H       1.3386269368    -2.3770849233    -0.7163693550
   10      C       1.2999056587    -0.2758471454    -0.1763311393
   11      C       0.7432812721    -1.5022337908    -0.4794443213
   12      S       0.0406262142     0.9033663386     0.1290363404
   13      C      -0.6785284246    -1.4987475101    -0.4706534249
   14      H      -1.2879988632    -2.3711113005    -0.6777427887
   15      C      -1.2271881845    -0.2721316349    -0.1765300283
   16      C      -2.6429024976     0.0947020785    -0.0829309341
   17      H      -3.2206078367     0.3492131130    -2.1473133030
   18      C      -3.5192164247     0.3777532360    -1.1054560717
   19      S      -3.4469151401     0.2598192293     1.4693507962
   20      C      -4.8311757151     0.7130055593    -0.6552817246
   21      C      -4.9418129779     0.6946643478     0.7107436679
   22      H      -5.6530464469     0.9605172855    -1.3174351579
   23      H      -5.8142476502     0.9075174588     1.3138756196
 ----------------------------------------------------------------

   10   -1656.6604700988      3.95E-09 Convergence criterion met
 Total energy in the final basis set = -1656.6604700988
 Final energy is   -1656.66047009879
 **  OPTIMIZATION CONVERGED  **

                    Orbital Energies (a.u.)
 --------------------------------------------------------------

 Alpha MOs
 -- Occupied --
-88.921 -88.921 -88.920 -10.241 -10.240 -10.238 -10.237 -10.226
-10.226 -10.206 -10.206 -10.205 -10.205 -10.205 -10.204  -7.981
 -7.979  -7.979  -5.945  -5.944  -5.944  -5.941  -5.940  -5.940
 -5.938  -5.937  -5.937  -0.905  -0.891  -0.876  -0.785  -0.753
 -0.744  -0.743  -0.733  -0.697  -0.615  -0.593  -0.568  -0.563
 -0.537  -0.534  -0.527  -0.500  -0.463  -0.421  -0.418  -0.417
 -0.415  -0.407  -0.404  -0.399  -0.383  -0.375  -0.370  -0.358
 -0.352  -0.345  -0.281  -0.267  -0.262  -0.258  -0.244  -0.213

          Ground-State Mulliken Net Atomic Charges

     Atom                 Charge (a.u.)
  ----------------------------------------
      1 H                     0.196607
      2 H                     0.119476
      3 C                     0.032964
      4 C                    -0.396762
      5 S                    -0.123499
      6 C                     0.526222
      7 H                     0.126464
      8 C                    -0.441025
      9 H                     0.123518
     10 C                    -0.011268
     11 C                    -0.158936
     12 S                    -0.067306
     13 C                     0.199860
     14 H                     0.126465
     15 C                    -0.358899
     16 C                    -0.448827
     17 H                     0.139742
     18 C                     0.406539
     19 S                     0.048569
     20 C                    -0.373112
     21 C                     0.016149
     22 H                     0.121519
     23 H                     0.195538
  ----------------------------------------
  Sum of atomic charges =     0.000000

                    Cartesian Multipole Moments
 -----------------------------------------------------------------
    Charge (ESU x 10^10)
                 0.0000
    Dipole Moment (Debye)
         X      -0.1208      Y       0.1253      Z      -0.7072
       Tot       0.7283
    Quadrupole Moments (Debye-Ang)
        XX     -90.0302     XY      -0.1046     YY    -105.5959
        XZ       1.2499     YZ       0.6301     ZZ    -110.9405

 Total job time:  112.89s(wall), 119.35s(cpu)
        *  Thank you very much for using Q-Chem.  Have a nice day.  *
