 Q-Chem 4.4, Q-Chem, Inc., Pleasanton, CA (2016)
 Q-Chem 4.4.2 for Intel X86 EM64T Linux

User input:
--------------------------------------------------------------
$molecule
 0  1
 H           6.23254100       -0.22338900        0.17638100
 H           5.29752400        2.22850500       -0.10953100
 C           5.19733500        0.07486000        0.08356300
 C           4.68347900        1.33634400       -0.06443600
 S           3.94559900       -1.12581000        0.11905200
 C           3.26267300        1.34659400       -0.16511200
 H           2.67740100        2.24810800       -0.30841700
 C           2.69562400        0.08941900       -0.09094600
 H           1.33241900       -2.39005500       -0.68762600
 C           1.29739300       -0.28590200       -0.16150800
 C           0.73808300       -1.51455700       -0.45078400
 S           0.03601800        0.89451200        0.14982500
 C          -0.68041100       -1.51067300       -0.44936800
 H          -1.28012400       -2.38277100       -0.68510300
 C          -1.23220500       -0.27900200       -0.15852500
 C          -2.62830100        0.10383400       -0.08465000
 H          -3.58780743       -1.57516315        0.89912017
 C          -3.69522658       -0.59824552        0.44096621
 S          -3.17383735        1.64853999       -0.71662645
 C          -4.93478073        0.09735060        0.34787864
 C          -4.81198536        1.32634600       -0.24523601
 H          -5.87589346       -0.29597025        0.71482175
 H          -5.58203299        2.06095511       -0.43652993
$end

$rem
         jobtype = opt
        exchange = b3lyp
           basis = 6-31++g**
  max_scf_cycles = 150
      mem_static = 281
       mem_total = 2818
      sym_ignore = true
        symmetry = false
          thresh = 12
$end

$opt
CONSTRAINT
tors 13 15 16 18 40.0
ENDCONSTRAINT
$end

--------------------------------------------------------------

   16   -1656.6628656356      2.53E-09 Convergence criterion met
 Total energy in the final basis set = -1656.6628656356
   12   -1656.6630430802      5.37E-09 Convergence criterion met
 Total energy in the final basis set = -1656.6630430802
   12   -1656.6630797768      3.90E-09 Convergence criterion met
 Total energy in the final basis set = -1656.6630797768
   10   -1656.6630822246      2.58E-09 Convergence criterion met
 Total energy in the final basis set = -1656.6630822246

             Standard Nuclear Orientation (Angstroms)
    I     Atom           X                Y                Z
 ----------------------------------------------------------------
    1      H       6.2340943335    -0.2658812810     0.1931967310
    2      H       5.3328817940     2.1959163376    -0.1163617337
    3      C       5.2032866542     0.0454810369     0.0945582435
    4      C       4.7068969504     1.3123863735    -0.0660131701
    5      S       3.9351736733    -1.1377846672     0.1360797924
    6      C       3.2865451617     1.3408008301    -0.1714060620
    7      H       2.7136928607     2.2488870989    -0.3233311289
    8      C       2.7027717995     0.0922352316    -0.0887396110
    9      H       1.3096013196    -2.3716481168    -0.6771705108
   10      C       1.2988303811    -0.2648413998    -0.1605374374
   11      C       0.7251421934    -1.4884933951    -0.4438350891
   12      S       0.0528434647     0.9335650585     0.1367243438
   13      C      -0.6942167903    -1.4648877104    -0.4519543231
   14      H      -1.3102412428    -2.3220238594    -0.6983134477
   15      C      -1.2285061988    -0.2266212642    -0.1624124892
   16      C      -2.6327175419     0.1432126558    -0.0915722899
   17      H      -3.5190920333    -1.5569760894     0.9124925667
   18      C      -3.6710181021    -0.5923141748     0.4420374320
   19      S      -3.2293530335     1.6702105500    -0.7182731693
   20      C      -4.9353843933     0.0578982592     0.3440576727
   21      C      -4.8550720454     1.2910579687    -0.2489606579
   22      H      -5.8621273952    -0.3653575457     0.7145094377
   23      H      -5.6505477095     1.9990078832    -0.4375657195
 ----------------------------------------------------------------

    9   -1656.6630829180      3.96E-09 Convergence criterion met
 Total energy in the final basis set = -1656.6630829180
 Final energy is   -1656.66308291804
 **  OPTIMIZATION CONVERGED  **

                    Orbital Energies (a.u.)
 --------------------------------------------------------------

 Alpha MOs
 -- Occupied --
-88.922 -88.921 -88.921 -10.241 -10.240 -10.240 -10.239 -10.226
-10.226 -10.206 -10.206 -10.206 -10.206 -10.205 -10.205  -7.981
 -7.981  -7.980  -5.945  -5.945  -5.945  -5.941  -5.941  -5.941
 -5.938  -5.938  -5.938  -0.907  -0.892  -0.876  -0.787  -0.755
 -0.745  -0.744  -0.734  -0.697  -0.617  -0.595  -0.568  -0.564
 -0.537  -0.533  -0.529  -0.499  -0.463  -0.422  -0.420  -0.418
 -0.415  -0.408  -0.402  -0.398  -0.386  -0.376  -0.370  -0.360
 -0.352  -0.344  -0.291  -0.266  -0.263  -0.261  -0.249  -0.204

          Ground-State Mulliken Net Atomic Charges

     Atom                 Charge (a.u.)
  ----------------------------------------
      1 H                     0.196096
      2 H                     0.119919
      3 C                     0.020538
      4 C                    -0.368461
      5 S                    -0.111006
      6 C                     0.471521
      7 H                     0.124010
      8 C                    -0.325813
      9 H                     0.126427
     10 C                    -0.170430
     11 C                     0.015719
     12 S                    -0.166085
     13 C                     0.074188
     14 H                     0.134359
     15 C                    -0.262628
     16 C                    -0.293114
     17 H                     0.145752
     18 C                     0.332173
     19 S                    -0.049467
     20 C                    -0.366057
     21 C                     0.034387
     22 H                     0.120097
     23 H                     0.197876
  ----------------------------------------
  Sum of atomic charges =     0.000000

                    Cartesian Multipole Moments
 -----------------------------------------------------------------
    Charge (ESU x 10^10)
                 0.0000
    Dipole Moment (Debye)
         X      -0.2141      Y      -0.3658      Z       0.0162
       Tot       0.4241
    Quadrupole Moments (Debye-Ang)
        XX     -89.5109     XY       1.8971     YY    -101.8274
        XZ      -1.1411     YZ      -1.1681     ZZ    -115.3411

 Total job time:  85.74s(wall), 90.91s(cpu)
        *  Thank you very much for using Q-Chem.  Have a nice day.  *
