 Q-Chem 4.4, Q-Chem, Inc., Pleasanton, CA (2016)
 Q-Chem 4.4.2 for Intel X86 EM64T Linux

User input:
--------------------------------------------------------------
$molecule
 0  1
 H           6.23254100       -0.22338900        0.17638100
 H           5.29752400        2.22850500       -0.10953100
 C           5.19733500        0.07486000        0.08356300
 C           4.68347900        1.33634400       -0.06443600
 S           3.94559900       -1.12581000        0.11905200
 C           3.26267300        1.34659400       -0.16511200
 H           2.67740100        2.24810800       -0.30841700
 C           2.69562400        0.08941900       -0.09094600
 H           1.33241900       -2.39005500       -0.68762600
 C           1.29739300       -0.28590200       -0.16150800
 C           0.73808300       -1.51455700       -0.45078400
 S           0.03601800        0.89451200        0.14982500
 C          -0.68041100       -1.51067300       -0.44936800
 H          -1.28012400       -2.38277100       -0.68510300
 C          -1.23220500       -0.27900200       -0.15852500
 C          -2.62830100        0.10383400       -0.08465000
 H          -3.40188798       -0.32502427       -2.06584448
 C          -3.59725218        0.05010256       -1.06738332
 S          -3.31036949        0.74176571        1.40227517
 C          -4.87473064        0.50536914       -0.63172878
 C          -4.87915696        0.90295464        0.67945372
 H          -5.75482373        0.52742032       -1.26417769
 H          -5.70548593        1.28250256        1.26455291
$end

$rem
         jobtype = opt
        exchange = b3lyp
           basis = 6-31++g**
  max_scf_cycles = 150
      mem_static = 281
       mem_total = 2818
      sym_ignore = true
        symmetry = false
          thresh = 12
$end

$opt
CONSTRAINT
tors 13 15 16 18 -60.0
ENDCONSTRAINT
$end

--------------------------------------------------------------

   15   -1656.6613280110      5.08E-09 Convergence criterion met
 Total energy in the final basis set = -1656.6613280110
   12   -1656.6617023731      5.76E-09 Convergence criterion met
 Total energy in the final basis set = -1656.6617023731
   11   -1656.6617748897      7.96E-09 Convergence criterion met
 Total energy in the final basis set = -1656.6617748897
   10   -1656.6617890338      6.68E-09 Convergence criterion met
 Total energy in the final basis set = -1656.6617890338
   10   -1656.6617938569      4.81E-09 Convergence criterion met
 Total energy in the final basis set = -1656.6617938569
   10   -1656.6617954248      4.04E-09 Convergence criterion met
 Total energy in the final basis set = -1656.6617954248

             Standard Nuclear Orientation (Angstroms)
    I     Atom           X                Y                Z
 ----------------------------------------------------------------
    1      H       6.2344073397    -0.2460123202     0.1888091809
    2      H       5.3188286503     2.2151707831    -0.0806292435
    3      C       5.2019597761     0.0605871968     0.0922174602
    4      C       4.6982936159     1.3269900815    -0.0477553293
    5      S       3.9413597226    -1.1309128949     0.1088398715
    6      C       3.2779845315     1.3480855233    -0.1577949221
    7      H       2.6999657636     2.2550539724    -0.2961913591
    8      C       2.7019638045     0.0950883865    -0.0978446112
    9      H       1.3291106274    -2.3695928337    -0.7251583591
   10      C       1.2993366962    -0.2695334568    -0.1810622852
   11      C       0.7371750400    -1.4923145298    -0.4885392941
   12      S       0.0440551952     0.9147433123     0.1286023606
   13      C      -0.6837348525    -1.4857457878    -0.4726933941
   14      H      -1.2956481711    -2.3596094733    -0.6652477191
   15      C      -1.2278074159    -0.2558196885    -0.1762974609
   16      C      -2.6394004782     0.1014975092    -0.0718862239
   17      H      -3.3935388116    -0.3538571044    -2.0446245557
   18      C      -3.6085223299     0.0109211702    -1.0467073002
   19      S      -3.3178289007     0.7777635059     1.3994382305
   20      C      -4.8914484662     0.4618738241    -0.6165859284
   21      C      -4.8877909451     0.9128678783     0.6775730925
   22      H      -5.7742041382     0.4628456743    -1.2458375474
   23      H      -5.7131751636     1.3150169315     1.2493378671
 ----------------------------------------------------------------

   10   -1656.6617959949      3.19E-09 Convergence criterion met
 Total energy in the final basis set = -1656.6617959949
 Final energy is   -1656.66179599491
 **  OPTIMIZATION CONVERGED  **

                    Orbital Energies (a.u.)
 --------------------------------------------------------------

 Alpha MOs
 -- Occupied --
-88.921 -88.921 -88.921 -10.241 -10.240 -10.239 -10.238 -10.226
-10.226 -10.206 -10.206 -10.205 -10.205 -10.205 -10.205  -7.980
 -7.980  -7.980  -5.945  -5.944  -5.944  -5.941  -5.941  -5.940
 -5.938  -5.937  -5.937  -0.906  -0.892  -0.876  -0.786  -0.754
 -0.745  -0.743  -0.733  -0.697  -0.616  -0.594  -0.568  -0.564
 -0.537  -0.534  -0.528  -0.499  -0.463  -0.422  -0.418  -0.417
 -0.415  -0.407  -0.403  -0.398  -0.383  -0.376  -0.370  -0.358
 -0.352  -0.345  -0.286  -0.266  -0.262  -0.259  -0.246  -0.209

          Ground-State Mulliken Net Atomic Charges

     Atom                 Charge (a.u.)
  ----------------------------------------
      1 H                     0.196603
      2 H                     0.119553
      3 C                     0.032632
      4 C                    -0.399354
      5 S                    -0.115190
      6 C                     0.511210
      7 H                     0.125989
      8 C                    -0.457042
      9 H                     0.122930
     10 C                    -0.016079
     11 C                    -0.156196
     12 S                    -0.120882
     13 C                     0.159308
     14 H                     0.135659
     15 C                    -0.239576
     16 C                    -0.378598
     17 H                     0.147848
     18 C                     0.354697
     19 S                     0.028223
     20 C                    -0.387702
     21 C                     0.019845
     22 H                     0.120339
     23 H                     0.195784
  ----------------------------------------
  Sum of atomic charges =     0.000000

                    Cartesian Multipole Moments
 -----------------------------------------------------------------
    Charge (ESU x 10^10)
                 0.0000
    Dipole Moment (Debye)
         X      -0.1794      Y      -0.0447      Z      -0.6755
       Tot       0.7003
    Quadrupole Moments (Debye-Ang)
        XX     -89.7367     XY       0.4799     YY    -105.2212
        XZ       1.5984     YZ       2.3829     ZZ    -111.4883

 Total job time:  113.54s(wall), 120.96s(cpu)
        *  Thank you very much for using Q-Chem.  Have a nice day.  *
