 Q-Chem 4.4, Q-Chem, Inc., Pleasanton, CA (2016)
 Q-Chem 4.4.2 for Intel X86 EM64T Linux

User input:
--------------------------------------------------------------
$molecule
 0  1
 H           6.23254100       -0.22338900        0.17638100
 H           5.29752400        2.22850500       -0.10953100
 C           5.19733500        0.07486000        0.08356300
 C           4.68347900        1.33634400       -0.06443600
 S           3.94559900       -1.12581000        0.11905200
 C           3.26267300        1.34659400       -0.16511200
 H           2.67740100        2.24810800       -0.30841700
 C           2.69562400        0.08941900       -0.09094600
 H           1.33241900       -2.39005500       -0.68762600
 C           1.29739300       -0.28590200       -0.16150800
 C           0.73808300       -1.51455700       -0.45078400
 S           0.03601800        0.89451200        0.14982500
 C          -0.68041100       -1.51067300       -0.44936800
 H          -1.28012400       -2.38277100       -0.68510300
 C          -1.23220500       -0.27900200       -0.15852500
 C          -2.62830100        0.10383400       -0.08465000
 H          -2.72158994        1.44489452        1.61838895
 C          -3.25335060        0.94010927        0.81949319
 S          -3.79418405       -0.51187082       -1.24428143
 C          -4.64907842        1.09435779        0.58040114
 C          -5.08541179        0.37911688       -0.50372848
 H          -5.29880544        1.71803830        1.18365825
 H          -6.08499326        0.31847684       -0.91162175
$end

$rem
         jobtype = opt
        exchange = b3lyp
           basis = 6-31++g**
  max_scf_cycles = 150
      mem_static = 281
       mem_total = 2818
      sym_ignore = true
        symmetry = false
          thresh = 12
$end

$opt
CONSTRAINT
tors 13 15 16 18 140.0
ENDCONSTRAINT
$end

--------------------------------------------------------------

   15   -1656.6634493090      5.25E-09 Convergence criterion met
 Total energy in the final basis set = -1656.6634493090
   12   -1656.6637354507      6.30E-09 Convergence criterion met
 Total energy in the final basis set = -1656.6637354507
   12   -1656.6638017344      4.19E-09 Convergence criterion met
 Total energy in the final basis set = -1656.6638017344
   11   -1656.6638159027      5.53E-09 Convergence criterion met
 Total energy in the final basis set = -1656.6638159027
   10   -1656.6638212897      7.57E-09 Convergence criterion met
 Total energy in the final basis set = -1656.6638212897
   10   -1656.6638228470      4.51E-09 Convergence criterion met
 Total energy in the final basis set = -1656.6638228470

             Standard Nuclear Orientation (Angstroms)
    I     Atom           X                Y                Z
 ----------------------------------------------------------------
    1      H       6.2218902175    -0.2521469426     0.2611604284
    2      H       5.3187924969     2.2079551429    -0.0552262779
    3      C       5.1923751205     0.0559056324     0.1409771324
    4      C       4.6951201772     1.3219092704    -0.0239356303
    5      S       3.9282258235    -1.1320366402     0.1471030604
    6      C       3.2774894513     1.3455241320    -0.1624020074
    7      H       2.7051257981     2.2524623621    -0.3229663961
    8      C       2.6964224269     0.0946332927    -0.0991552284
    9      H       1.3270632690    -2.3765353402    -0.7109686684
   10      C       1.2956629340    -0.2668775832    -0.2059390296
   11      C       0.7340002791    -1.4930762505    -0.5018329913
   12      S       0.0372837232     0.9278568333     0.0536852933
   13      C      -0.6854707159    -1.4834714979    -0.5129092352
   14      H      -1.2913238492    -2.3625102694    -0.7021176011
   15      C      -1.2322109881    -0.2473664264    -0.2381240554
   16      C      -2.6303239244     0.1344864750    -0.1335040182
   17      H      -2.6741240394     1.5077984400     1.5413198135
   18      C      -3.2297468109     0.9915132557     0.7665192517
   19      S      -3.8327847521    -0.5527208213    -1.2111419693
   20      C      -4.6407789877     1.0959424874     0.5965070415
   21      C      -5.1129923491     0.3131454944    -0.4246807371
   22      H      -5.2786888358     1.7166526781     1.2154031646
   23      H      -6.1333719648     0.1940960554    -0.7626464703
 ----------------------------------------------------------------

    9   -1656.6638234413      7.06E-09 Convergence criterion met
 Total energy in the final basis set = -1656.6638234413
 Final energy is   -1656.66382344127
 **  OPTIMIZATION CONVERGED  **

                    Orbital Energies (a.u.)
 --------------------------------------------------------------

 Alpha MOs
 -- Occupied --
-88.921 -88.921 -88.921 -10.241 -10.240 -10.240 -10.240 -10.226
-10.226 -10.206 -10.206 -10.206 -10.206 -10.205 -10.205  -7.981
 -7.981  -7.981  -5.945  -5.945  -5.945  -5.941  -5.941  -5.941
 -5.938  -5.938  -5.938  -0.907  -0.892  -0.876  -0.787  -0.756
 -0.745  -0.745  -0.733  -0.697  -0.617  -0.596  -0.570  -0.561
 -0.536  -0.535  -0.529  -0.501  -0.462  -0.423  -0.421  -0.417
 -0.415  -0.408  -0.402  -0.400  -0.385  -0.377  -0.370  -0.360
 -0.350  -0.345  -0.293  -0.266  -0.263  -0.261  -0.248  -0.204

          Ground-State Mulliken Net Atomic Charges

     Atom                 Charge (a.u.)
  ----------------------------------------
      1 H                     0.196363
      2 H                     0.119501
      3 C                     0.035311
      4 C                    -0.370891
      5 S                    -0.115071
      6 C                     0.535992
      7 H                     0.127149
      8 C                    -0.484992
      9 H                     0.117902
     10 C                    -0.034460
     11 C                    -0.180825
     12 S                    -0.190394
     13 C                     0.189531
     14 H                     0.132030
     15 C                    -0.152147
     16 C                    -0.478917
     17 H                     0.139207
     18 C                     0.468349
     19 S                    -0.052328
     20 C                    -0.359672
     21 C                     0.046034
     22 H                     0.117903
     23 H                     0.194426
  ----------------------------------------
  Sum of atomic charges =     0.000000

                    Cartesian Multipole Moments
 -----------------------------------------------------------------
    Charge (ESU x 10^10)
                 0.0000
    Dipole Moment (Debye)
         X      -0.0272      Y       0.3246      Z       0.2844
       Tot       0.4324
    Quadrupole Moments (Debye-Ang)
        XX     -90.2913     XY       0.1638     YY    -103.8452
        XZ      -0.3028     YZ       3.3228     ZZ    -113.3990

 Total job time:  114.28s(wall), 121.00s(cpu)
        *  Thank you very much for using Q-Chem.  Have a nice day.  *
