 Q-Chem 4.4, Q-Chem, Inc., Pleasanton, CA (2016)
 Q-Chem 4.4.2 for Intel X86 EM64T Linux

User input:
--------------------------------------------------------------
$molecule
 0  1
 H           6.23254100       -0.22338900        0.17638100
 H           5.29752400        2.22850500       -0.10953100
 C           5.19733500        0.07486000        0.08356300
 C           4.68347900        1.33634400       -0.06443600
 S           3.94559900       -1.12581000        0.11905200
 C           3.26267300        1.34659400       -0.16511200
 H           2.67740100        2.24810800       -0.30841700
 C           2.69562400        0.08941900       -0.09094600
 H           1.33241900       -2.39005500       -0.68762600
 C           1.29739300       -0.28590200       -0.16150800
 C           0.73808300       -1.51455700       -0.45078400
 S           0.03601800        0.89451200        0.14982500
 C          -0.68041100       -1.51067300       -0.44936800
 H          -1.28012400       -2.38277100       -0.68510300
 C          -1.23220500       -0.27900200       -0.15852500
 C          -2.62830100        0.10383400       -0.08465000
 H          -3.16310389       -0.23694692        1.99028181
 C          -3.47931799        0.08067886        1.00289410
 S          -3.47718989        0.69419663       -1.50379776
 C          -4.79440087        0.54024383        0.70562184
 C          -4.94403657        0.91402777       -0.60403006
 H          -5.59228794        0.59889434        1.43704379
 H          -5.82496292        1.30237952       -1.09633987
$end

$rem
         jobtype = opt
        exchange = b3lyp
           basis = 6-31++g**
  max_scf_cycles = 150
      mem_static = 281
       mem_total = 2818
      sym_ignore = true
        symmetry = false
          thresh = 12
$end

$opt
CONSTRAINT
tors 13 15 16 18 90.0
ENDCONSTRAINT
$end

--------------------------------------------------------------

   15   -1656.6599300372      5.21E-09 Convergence criterion met
 Total energy in the final basis set = -1656.6599300372
   12   -1656.6602716095      3.92E-09 Convergence criterion met
 Total energy in the final basis set = -1656.6602716095
   11   -1656.6602963178      6.59E-09 Convergence criterion met
 Total energy in the final basis set = -1656.6602963178
   10   -1656.6602993415      3.57E-09 Convergence criterion met
 Total energy in the final basis set = -1656.6602993415

             Standard Nuclear Orientation (Angstroms)
    I     Atom           X                Y                Z
 ----------------------------------------------------------------
    1      H       6.2332369382    -0.2470755159     0.2199339853
    2      H       5.3241741843     2.2096619396    -0.1057142596
    3      C       5.2019166809     0.0592961637     0.1113102258
    4      C       4.7016845512     1.3235400295    -0.0577500454
    5      S       3.9388482630    -1.1290421745     0.1456052233
    6      C       3.2819601556     1.3449599267    -0.1756905692
    7      H       2.7061962402     2.2497965358    -0.3357886454
    8      C       2.7033846412     0.0946321028    -0.0932643392
    9      H       1.3320469473    -2.3772668104    -0.6907967078
   10      C       1.2997955027    -0.2691976773    -0.1773294100
   11      C       0.7394133613    -1.4973312377    -0.4662947665
   12      S       0.0441837979     0.9175952454     0.1117556430
   13      C      -0.6825556567    -1.4872102516    -0.4661921828
   14      H      -1.2945449970    -2.3558731663    -0.6813604933
   15      C      -1.2271966864    -0.2577817409    -0.1777498062
   16      C      -2.6415329857     0.1217277681    -0.0961759315
   17      H      -3.1313979528    -0.2296565104     1.9770324248
   18      C      -3.4724426448     0.0941864068     1.0000464216
   19      S      -3.5140449859     0.7019533272    -1.5051272772
   20      C      -4.8024315401     0.5283596362     0.7182927348
   21      C      -4.9738766344     0.8886842188    -0.5929934305
   22      H      -5.5944012428     0.5696718032     1.4574083670
   23      H      -5.8726680071     1.2498610113    -1.0746683110
 ----------------------------------------------------------------

    9   -1656.6603001337      9.45E-09 Convergence criterion met
 Total energy in the final basis set = -1656.6603001337
 Final energy is   -1656.66030013371
 **  OPTIMIZATION CONVERGED  **

                    Orbital Energies (a.u.)
 --------------------------------------------------------------

 Alpha MOs
 -- Occupied --
-88.921 -88.921 -88.920 -10.241 -10.240 -10.237 -10.237 -10.226
-10.226 -10.206 -10.206 -10.205 -10.205 -10.205 -10.204  -7.981
 -7.979  -7.979  -5.945  -5.944  -5.943  -5.941  -5.940  -5.940
 -5.938  -5.937  -5.937  -0.905  -0.891  -0.876  -0.785  -0.753
 -0.745  -0.743  -0.733  -0.697  -0.615  -0.593  -0.568  -0.563
 -0.537  -0.534  -0.527  -0.500  -0.462  -0.421  -0.419  -0.416
 -0.416  -0.406  -0.402  -0.401  -0.383  -0.375  -0.370  -0.358
 -0.351  -0.345  -0.280  -0.267  -0.262  -0.258  -0.244  -0.214

          Ground-State Mulliken Net Atomic Charges

     Atom                 Charge (a.u.)
  ----------------------------------------
      1 H                     0.196301
      2 H                     0.119048
      3 C                     0.031729
      4 C                    -0.417839
      5 S                    -0.126641
      6 C                     0.579297
      7 H                     0.129605
      8 C                    -0.464667
      9 H                     0.124894
     10 C                    -0.055561
     11 C                    -0.075388
     12 S                    -0.069735
     13 C                     0.164588
     14 H                     0.126035
     15 C                    -0.299638
     16 C                    -0.598949
     17 H                     0.146553
     18 C                     0.545402
     19 S                     0.030411
     20 C                    -0.472488
     21 C                     0.073368
     22 H                     0.118066
     23 H                     0.195609
  ----------------------------------------
  Sum of atomic charges =     0.000000

                    Cartesian Multipole Moments
 -----------------------------------------------------------------
    Charge (ESU x 10^10)
                 0.0000
    Dipole Moment (Debye)
         X      -0.0948      Y      -0.0402      Z       0.3011
       Tot       0.3182
    Quadrupole Moments (Debye-Ang)
        XX     -90.0920     XY       0.3144     YY    -105.3776
        XZ      -1.2472     YZ      -0.3422     ZZ    -111.4263

 Total job time:  82.36s(wall), 86.44s(cpu)
        *  Thank you very much for using Q-Chem.  Have a nice day.  *
