 Q-Chem 4.4, Q-Chem, Inc., Pleasanton, CA (2016)
 Q-Chem 4.4.2 for Intel X86 EM64T Linux

User input:
--------------------------------------------------------------
$molecule
 0  1
 H           6.23254100       -0.22338900        0.17638100
 H           5.29752400        2.22850500       -0.10953100
 C           5.19733500        0.07486000        0.08356300
 C           4.68347900        1.33634400       -0.06443600
 S           3.94559900       -1.12581000        0.11905200
 C           3.26267300        1.34659400       -0.16511200
 H           2.67740100        2.24810800       -0.30841700
 C           2.69562400        0.08941900       -0.09094600
 H           1.33241900       -2.39005500       -0.68762600
 C           1.29739300       -0.28590200       -0.16150800
 C           0.73808300       -1.51455700       -0.45078400
 S           0.03601800        0.89451200        0.14982500
 C          -0.68041100       -1.51067300       -0.44936800
 H          -1.28012400       -2.38277100       -0.68510300
 C          -1.23220500       -0.27900200       -0.15852500
 C          -2.62830100        0.10383400       -0.08465000
 H          -3.26092420       -0.57193548        1.87764745
 C          -3.52918666       -0.08984104        0.94414213
 S          -3.40716939        0.93370640       -1.42173510
 C          -4.82667750        0.42960735        0.66899733
 C          -4.91324448        1.01878054       -0.56496965
 H          -5.65748552        0.37539431        1.36315919
 H          -5.76832064        1.49508182       -1.02453369
$end

$rem
         jobtype = opt
        exchange = b3lyp
           basis = 6-31++g**
  max_scf_cycles = 150
      mem_static = 281
       mem_total = 2818
      sym_ignore = true
        symmetry = false
          thresh = 12
$end

$opt
CONSTRAINT
tors 13 15 16 18 80.0
ENDCONSTRAINT
$end

--------------------------------------------------------------

   15   -1656.6601476573      6.78E-09 Convergence criterion met
 Total energy in the final basis set = -1656.6601476573
   12   -1656.6604672485      3.69E-09 Convergence criterion met
 Total energy in the final basis set = -1656.6604672485
   11   -1656.6604984753      5.15E-09 Convergence criterion met
 Total energy in the final basis set = -1656.6604984753
   10   -1656.6605073968      7.61E-09 Convergence criterion met
 Total energy in the final basis set = -1656.6605073968
   11   -1656.6605153430      4.88E-09 Convergence criterion met
 Total energy in the final basis set = -1656.6605153430
   11   -1656.6605184054      5.20E-09 Convergence criterion met
 Total energy in the final basis set = -1656.6605184054
   10   -1656.6605200631      8.72E-09 Convergence criterion met
 Total energy in the final basis set = -1656.6605200631

             Standard Nuclear Orientation (Angstroms)
    I     Atom           X                Y                Z
 ----------------------------------------------------------------
    1      H       6.2354786837    -0.2292415109     0.2101324273
    2      H       5.3150396377     2.2183490736    -0.1502603401
    3      C       5.2023179000     0.0713812836     0.1029786890
    4      C       4.6962063667     1.3308702275    -0.0834257150
    5      S       3.9439756203    -1.1209124039     0.1647648835
    6      C       3.2757624059     1.3451866591    -0.1927341297
    7      H       2.6954713853     2.2449691716    -0.3644788863
    8      C       2.7025464571     0.0940545563    -0.0867424621
    9      H       1.3364653304    -2.3828743800    -0.6772883448
   10      C       1.3002947091    -0.2762517395    -0.1591326675
   11      C       0.7421081702    -1.5061668484    -0.4447279131
   12      S       0.0425612909     0.9062596830     0.1402509452
   13      C      -0.6795944045    -1.4993045831    -0.4416523432
   14      H      -1.2902457197    -2.3663608076    -0.6667404351
   15      C      -1.2267554604    -0.2729420341    -0.1431930993
   16      C      -2.6413018599     0.1051157471    -0.0860085554
   17      H      -3.2693646951    -0.6311042737     1.8438457120
   18      C      -3.5420691680    -0.1134854285     0.9311088120
   19      S      -3.4070830820     0.9921751071    -1.3945160417
   20      C      -4.8427802339     0.4087168815     0.6629725855
   21      C      -4.9198830816     1.0369158473    -0.5526773979
   22      H      -5.6802458023     0.3260206870     1.3463554850
   23      H      -5.7768648397     1.5194399851    -1.0033085484
 ----------------------------------------------------------------

   10   -1656.6605207888      3.81E-09 Convergence criterion met
 Total energy in the final basis set = -1656.6605207888
 Final energy is   -1656.66052078885
 **  OPTIMIZATION CONVERGED  **

                    Orbital Energies (a.u.)
 --------------------------------------------------------------

 Alpha MOs
 -- Occupied --
-88.921 -88.921 -88.920 -10.241 -10.240 -10.238 -10.237 -10.226
-10.226 -10.206 -10.206 -10.205 -10.205 -10.205 -10.204  -7.981
 -7.980  -7.979  -5.945  -5.944  -5.943  -5.941  -5.940  -5.940
 -5.938  -5.937  -5.937  -0.905  -0.891  -0.876  -0.785  -0.753
 -0.745  -0.743  -0.733  -0.697  -0.615  -0.593  -0.568  -0.563
 -0.537  -0.534  -0.527  -0.500  -0.463  -0.421  -0.419  -0.417
 -0.415  -0.407  -0.402  -0.401  -0.383  -0.375  -0.370  -0.358
 -0.352  -0.345  -0.280  -0.267  -0.262  -0.258  -0.245  -0.213

          Ground-State Mulliken Net Atomic Charges

     Atom                 Charge (a.u.)
  ----------------------------------------
      1 H                     0.196110
      2 H                     0.118925
      3 C                     0.031487
      4 C                    -0.420236
      5 S                    -0.125275
      6 C                     0.580087
      7 H                     0.130266
      8 C                    -0.456939
      9 H                     0.125469
     10 C                    -0.046012
     11 C                    -0.078267
     12 S                    -0.076182
     13 C                     0.140300
     14 H                     0.127081
     15 C                    -0.329368
     16 C                    -0.553903
     17 H                     0.149915
     18 C                     0.564570
     19 S                     0.012642
     20 C                    -0.485519
     21 C                     0.079941
     22 H                     0.117924
     23 H                     0.196985
  ----------------------------------------
  Sum of atomic charges =     0.000000

                    Cartesian Multipole Moments
 -----------------------------------------------------------------
    Charge (ESU x 10^10)
                 0.0000
    Dipole Moment (Debye)
         X      -0.1162      Y      -0.1087      Z       0.2273
       Tot       0.2775
    Quadrupole Moments (Debye-Ang)
        XX     -90.0228     XY       0.5388     YY    -104.6817
        XZ      -1.5223     YZ      -1.2363     ZZ    -112.0577

 Total job time:  130.31s(wall), 137.87s(cpu)
        *  Thank you very much for using Q-Chem.  Have a nice day.  *
