 Q-Chem 4.4, Q-Chem, Inc., Pleasanton, CA (2016)
 Q-Chem 4.4.2 for Intel X86 EM64T Linux

User input:
--------------------------------------------------------------
$molecule
 0  1
 H           6.23254100       -0.22338900        0.17638100
 H           5.29752400        2.22850500       -0.10953100
 C           5.19733500        0.07486000        0.08356300
 C           4.68347900        1.33634400       -0.06443600
 S           3.94559900       -1.12581000        0.11905200
 C           3.26267300        1.34659400       -0.16511200
 H           2.67740100        2.24810800       -0.30841700
 C           2.69562400        0.08941900       -0.09094600
 H           1.33241900       -2.39005500       -0.68762600
 C           1.29739300       -0.28590200       -0.16150800
 C           0.73808300       -1.51455700       -0.45078400
 S           0.03601800        0.89451200        0.14982500
 C          -0.68041100       -1.51067300       -0.44936800
 H          -1.28012400       -2.38277100       -0.68510300
 C          -1.23220500       -0.27900200       -0.15852500
 C          -2.62830100        0.10383400       -0.08465000
 H          -2.61633510        1.93185389        1.08397649
 C          -3.19903335        1.19045931        0.54861791
 S          -3.87023765       -0.86270745       -0.86343863
 C          -4.61461590        1.25418247        0.40343125
 C          -5.12032749        0.22014659       -0.33975041
 H          -5.22923969        2.04072757        0.82607308
 H          -6.14919832        0.02612195       -0.60992907
$end

$rem
         jobtype = opt
        exchange = b3lyp
           basis = 6-31++g**
  max_scf_cycles = 150
      mem_static = 281
       mem_total = 2818
      sym_ignore = true
        symmetry = false
          thresh = 12
$end

$opt
CONSTRAINT
tors 13 15 16 18 160.0
ENDCONSTRAINT
$end

--------------------------------------------------------------

   15   -1656.6641210719      3.02E-09 Convergence criterion met
 Total energy in the final basis set = -1656.6641210719
   12   -1656.6642976328      4.39E-09 Convergence criterion met
 Total energy in the final basis set = -1656.6642976328
   11   -1656.6643317546      4.17E-09 Convergence criterion met
 Total energy in the final basis set = -1656.6643317546
    9   -1656.6643374463      6.32E-09 Convergence criterion met
 Total energy in the final basis set = -1656.6643374463
    9   -1656.6643392183      9.32E-09 Convergence criterion met
 Total energy in the final basis set = -1656.6643392183

             Standard Nuclear Orientation (Angstroms)
    I     Atom           X                Y                Z
 ----------------------------------------------------------------
    1      H       6.2275728229    -0.2388765574     0.2194242814
    2      H       5.3105688020     2.2176275962    -0.0843633328
    3      C       5.1954132807     0.0649763123     0.1119135919
    4      C       4.6909067161     1.3290459331    -0.0460771775
    5      S       3.9364194062    -1.1282820011     0.1326778248
    6      C       3.2717339286     1.3470471481    -0.1672385278
    7      H       2.6938624517     2.2517410551    -0.3204987782
    8      C       2.6964823248     0.0934752793    -0.0982769864
    9      H       1.3307175291    -2.3837059416    -0.6954092001
   10      C       1.2972170485    -0.2744187145    -0.1897862223
   11      C       0.7369107539    -1.5026156218    -0.4788455720
   12      S       0.0365106557     0.9159004482     0.0847659325
   13      C      -0.6815492452    -1.4977432623    -0.4771107260
   14      H      -1.2821962013    -2.3800114182    -0.6683064369
   15      C      -1.2327951197    -0.2642918134    -0.1932511710
   16      C      -2.6293996104     0.1149408051    -0.1078347425
   17      H      -2.6129135027     1.9404239571     1.0641678922
   18      C      -3.1966771623     1.2063673073     0.5199621624
   19      S      -3.8765242998    -0.8651856004    -0.8610367989
   20      C      -4.6159140766     1.2528644877     0.4072056927
   21      C      -5.1281431444     0.1982929473    -0.3019971025
   22      H      -5.2299866849     2.0321881006     0.8438272846
   23      H      -6.1621561728    -0.0189591164    -0.5321162678
 ----------------------------------------------------------------

    9   -1656.6643398505      8.33E-09 Convergence criterion met
 Total energy in the final basis set = -1656.6643398505
 Final energy is   -1656.66433985050
 **  OPTIMIZATION CONVERGED  **

                    Orbital Energies (a.u.)
 --------------------------------------------------------------

 Alpha MOs
 -- Occupied --
-88.921 -88.921 -88.921 -10.241 -10.241 -10.241 -10.241 -10.226
-10.226 -10.207 -10.206 -10.206 -10.206 -10.205 -10.205  -7.981
 -7.981  -7.981  -5.945  -5.945  -5.945  -5.941  -5.941  -5.941
 -5.938  -5.938  -5.937  -0.907  -0.893  -0.876  -0.788  -0.757
 -0.745  -0.745  -0.732  -0.698  -0.618  -0.598  -0.570  -0.560
 -0.536  -0.535  -0.530  -0.502  -0.462  -0.423  -0.422  -0.417
 -0.415  -0.409  -0.402  -0.399  -0.387  -0.379  -0.370  -0.361
 -0.350  -0.344  -0.297  -0.268  -0.263  -0.260  -0.249  -0.201

          Ground-State Mulliken Net Atomic Charges

     Atom                 Charge (a.u.)
  ----------------------------------------
      1 H                     0.196401
      2 H                     0.119608
      3 C                     0.025530
      4 C                    -0.306399
      5 S                    -0.119092
      6 C                     0.595766
      7 H                     0.131976
      8 C                    -0.480424
      9 H                     0.122283
     10 C                    -0.155208
     11 C                     0.022017
     12 S                    -0.322170
     13 C                     0.045501
     14 H                     0.123058
     15 C                    -0.164554
     16 C                    -0.477792
     17 H                     0.132475
     18 C                     0.594752
     19 S                    -0.117802
     20 C                    -0.307094
     21 C                     0.025447
     22 H                     0.119540
     23 H                     0.196183
  ----------------------------------------
  Sum of atomic charges =     0.000000

                    Cartesian Multipole Moments
 -----------------------------------------------------------------
    Charge (ESU x 10^10)
                 0.0000
    Dipole Moment (Debye)
         X      -0.0000      Y       0.4541      Z       0.1194
       Tot       0.4696
    Quadrupole Moments (Debye-Ang)
        XX     -90.2888     XY       0.0266     YY    -102.2207
        XZ      -0.1680     YZ       3.1461     ZZ    -115.0607

 Total job time:  95.67s(wall), 101.18s(cpu)
        *  Thank you very much for using Q-Chem.  Have a nice day.  *
