 Q-Chem 4.4, Q-Chem, Inc., Pleasanton, CA (2016)
 Q-Chem 4.4.2 for Intel X86 EM64T Linux

User input:
--------------------------------------------------------------
$molecule
 0  1
 H           6.23254100       -0.22338900        0.17638100
 H           5.29752400        2.22850500       -0.10953100
 C           5.19733500        0.07486000        0.08356300
 C           4.68347900        1.33634400       -0.06443600
 S           3.94559900       -1.12581000        0.11905200
 C           3.26267300        1.34659400       -0.16511200
 H           2.67740100        2.24810800       -0.30841700
 C           2.69562400        0.08941900       -0.09094600
 H           1.33241900       -2.39005500       -0.68762600
 C           1.29739300       -0.28590200       -0.16150800
 C           0.73808300       -1.51455700       -0.45078400
 S           0.03601800        0.89451200        0.14982500
 C          -0.68041100       -1.51067300       -0.44936800
 H          -1.28012400       -2.38277100       -0.68510300
 C          -1.23220500       -0.27900200       -0.15852500
 C          -2.62830100        0.10383400       -0.08465000
 H          -3.70495721       -1.72716792       -0.52706513
 C          -3.75365247       -0.67075167       -0.28742905
 S          -3.09138187        1.75195953        0.30568203
 C          -4.97396152        0.04517231       -0.12216429
 C          -4.77862120        1.36069136        0.20729769
 H          -5.95513032       -0.40172639       -0.23455225
 H          -5.52061483        2.12430492        0.39586344
$end

$rem
         jobtype = opt
        exchange = b3lyp
           basis = 6-31++g**
  max_scf_cycles = 150
      mem_static = 281
       mem_total = 2818
      sym_ignore = true
        symmetry = false
          thresh = 12
$end

$opt
CONSTRAINT
tors 13 15 16 18 0.0
ENDCONSTRAINT
$end

--------------------------------------------------------------

   16   -1656.6623054055      2.58E-09 Convergence criterion met
 Total energy in the final basis set = -1656.6623054055
   13   -1656.6625977309      3.37E-09 Convergence criterion met
 Total energy in the final basis set = -1656.6625977309
   11   -1656.6626187720      6.05E-09 Convergence criterion met
 Total energy in the final basis set = -1656.6626187720
   10   -1656.6626226103      3.66E-09 Convergence criterion met
 Total energy in the final basis set = -1656.6626226103
   10   -1656.6626239964      4.05E-09 Convergence criterion met
 Total energy in the final basis set = -1656.6626239964

             Standard Nuclear Orientation (Angstroms)
    I     Atom           X                Y                Z
 ----------------------------------------------------------------
    1      H       6.2377414469    -0.2694757335     0.1639830458
    2      H       5.3341445723     2.1971734887    -0.0965326129
    3      C       5.2064030232     0.0432404584     0.0758314664
    4      C       4.7086862132     1.3125919627    -0.0597827390
    5      S       3.9389212394    -1.1413577195     0.1010914174
    6      C       3.2881464856     1.3424417782    -0.1595245087
    7      H       2.7147062298     2.2530248487    -0.2931784869
    8      C       2.7046785372     0.0921576352    -0.0966284937
    9      H       1.3046524360    -2.3693402503    -0.6931353339
   10      C       1.3019914282    -0.2639898498    -0.1694797996
   11      C       0.7234420255    -1.4842300242    -0.4591836511
   12      S       0.0572747141     0.9338095507     0.1360779256
   13      C      -0.6933555914    -1.4624030432    -0.4476570219
   14      H      -1.3024770479    -2.3327241939    -0.6616940452
   15      C      -1.2294688602    -0.2225275782    -0.1536418834
   16      C      -2.6314226100     0.1434167160    -0.0688806839
   17      H      -3.6497138838    -1.7243280373    -0.5074046808
   18      C      -3.7314432915    -0.6714474821    -0.2644661330
   19      S      -3.1537027505     1.7769684739     0.3022536713
   20      C      -4.9741732496     0.0051241542    -0.1154283482
   21      C      -4.8263596034     1.3331447909     0.1906758291
   22      H      -5.9389428274    -0.4754098416    -0.2318959145
   23      H      -5.5930000557     2.0766390360     0.3590484212
 ----------------------------------------------------------------

   10   -1656.6626247877      4.40E-09 Convergence criterion met
 Total energy in the final basis set = -1656.6626247877
 Final energy is   -1656.66262478768
 **  OPTIMIZATION CONVERGED  **

                    Orbital Energies (a.u.)
 --------------------------------------------------------------

 Alpha MOs
 -- Occupied --
-88.922 -88.922 -88.921 -10.242 -10.241 -10.241 -10.240 -10.226
-10.226 -10.207 -10.206 -10.206 -10.206 -10.205 -10.204  -7.981
 -7.981  -7.980  -5.945  -5.945  -5.944  -5.942  -5.942  -5.941
 -5.938  -5.938  -5.937  -0.907  -0.893  -0.877  -0.788  -0.757
 -0.745  -0.745  -0.734  -0.697  -0.618  -0.597  -0.569  -0.564
 -0.538  -0.533  -0.530  -0.499  -0.463  -0.424  -0.421  -0.419
 -0.416  -0.409  -0.401  -0.397  -0.388  -0.376  -0.370  -0.363
 -0.351  -0.341  -0.299  -0.269  -0.263  -0.259  -0.250  -0.199

          Ground-State Mulliken Net Atomic Charges

     Atom                 Charge (a.u.)
  ----------------------------------------
      1 H                     0.195524
      2 H                     0.120405
      3 C                     0.006915
      4 C                    -0.333576
      5 S                    -0.067556
      6 C                     0.454098
      7 H                     0.130677
      8 C                    -0.304662
      9 H                     0.121470
     10 C                    -0.178713
     11 C                    -0.080780
     12 S                    -0.417588
     13 C                     0.175801
     14 H                     0.104103
     15 C                     0.025212
     16 C                    -0.192631
     17 H                     0.099218
     18 C                     0.323845
     19 S                    -0.062421
     20 C                    -0.439883
     21 C                    -0.003083
     22 H                     0.120117
     23 H                     0.203509
  ----------------------------------------
  Sum of atomic charges =     0.000000

                    Cartesian Multipole Moments
 -----------------------------------------------------------------
    Charge (ESU x 10^10)
                 0.0000
    Dipole Moment (Debye)
         X      -0.2646      Y      -0.4289      Z      -0.3265
       Tot       0.6005
    Quadrupole Moments (Debye-Ang)
        XX     -89.2129     XY       2.3650     YY    -101.0828
        XZ       0.4125     YZ       2.0944     ZZ    -116.2523

 Total job time:  101.17s(wall), 108.34s(cpu)
        *  Thank you very much for using Q-Chem.  Have a nice day.  *
