 Q-Chem 4.4, Q-Chem, Inc., Pleasanton, CA (2016)
 Q-Chem 4.4.2 for Intel X86 EM64T Linux

User input:
--------------------------------------------------------------
$molecule
 0  1
 H           6.23254100       -0.22338900        0.17638100
 H           5.29752400        2.22850500       -0.10953100
 C           5.19733500        0.07486000        0.08356300
 C           4.68347900        1.33634400       -0.06443600
 S           3.94559900       -1.12581000        0.11905200
 C           3.26267300        1.34659400       -0.16511200
 H           2.67740100        2.24810800       -0.30841700
 C           2.69562400        0.08941900       -0.09094600
 H           1.33241900       -2.39005500       -0.68762600
 C           1.29739300       -0.28590200       -0.16150800
 C           0.73808300       -1.51455700       -0.45078400
 S           0.03601800        0.89451200        0.14982500
 C          -0.68041100       -1.51067300       -0.44936800
 H          -1.28012400       -2.38277100       -0.68510300
 C          -1.23220500       -0.27900200       -0.15852500
 C          -2.62830100        0.10383400       -0.08465000
 H          -2.66170258        1.71065547        1.37291540
 C          -3.22250430        1.07657574        0.69523088
 S          -3.83739305       -0.70316529       -1.06952019
 C          -4.62944623        1.18164941        0.49904811
 C          -5.10511856        0.29280084       -0.42884059
 H          -5.25917182        1.89429366        1.01926497
 H          -6.12123316        0.15973159       -0.77383473
$end

$rem
         jobtype = opt
        exchange = b3lyp
           basis = 6-31++g**
  max_scf_cycles = 150
      mem_static = 281
       mem_total = 2818
      sym_ignore = true
        symmetry = false
          thresh = 12
$end

$opt
CONSTRAINT
tors 13 15 16 18 150.0
ENDCONSTRAINT
$end

--------------------------------------------------------------

   15   -1656.6639402990      2.83E-09 Convergence criterion met
 Total energy in the final basis set = -1656.6639402990
   12   -1656.6641705292      5.43E-09 Convergence criterion met
 Total energy in the final basis set = -1656.6641705292
   11   -1656.6642146096      6.87E-09 Convergence criterion met
 Total energy in the final basis set = -1656.6642146096
   10   -1656.6642216181      5.14E-09 Convergence criterion met
 Total energy in the final basis set = -1656.6642216181
    9   -1656.6642234314      9.40E-09 Convergence criterion met
 Total energy in the final basis set = -1656.6642234314

             Standard Nuclear Orientation (Angstroms)
    I     Atom           X                Y                Z
 ----------------------------------------------------------------
    1      H       6.2255640351    -0.2428852587     0.2355641113
    2      H       5.3134620733     2.2143705319    -0.0768442460
    3      C       5.1943102749     0.0622550910     0.1231002412
    4      C       4.6923756075     1.3267453041    -0.0394493373
    5      S       3.9334410657    -1.1290523009     0.1407097165
    6      C       3.2737033463     1.3464887888    -0.1668330474
    7      H       2.6977892033     2.2516931275    -0.3244387560
    8      C       2.6964021304     0.0940146638    -0.0977908760
    9      H       1.3299806916    -2.3809795333    -0.7008304774
   10      C       1.2964698027    -0.2716550569    -0.1951165984
   11      C       0.7360408034    -1.4991474538    -0.4875273417
   12      S       0.0362831373     0.9199232917     0.0735735081
   13      C      -0.6829627240    -1.4931331518    -0.4902979279
   14      H      -1.2858240445    -2.3743701430    -0.6790177502
   15      C      -1.2324586189    -0.2589964618    -0.2088155674
   16      C      -2.6296753630     0.1216035221    -0.1166499840
   17      H      -2.6437897449     1.7325177147     1.3345446433
   18      C      -3.2126715747     1.1041523349     0.6582548722
   19      S      -3.8536170720    -0.7145622902    -1.0567220382
   20      C      -4.6272776323     1.1815875232     0.5070164762
   21      C      -5.1194068879     0.2572597633    -0.3769814061
   22      H      -5.2532713842     1.8864124754     1.0421989991
   23      H      -6.1463888253     0.0883159378    -0.6705683638
 ----------------------------------------------------------------

    9   -1656.6642239710      7.76E-09 Convergence criterion met
 Total energy in the final basis set = -1656.6642239710
 Final energy is   -1656.66422397099
 **  OPTIMIZATION CONVERGED  **

                    Orbital Energies (a.u.)
 --------------------------------------------------------------

 Alpha MOs
 -- Occupied --
-88.921 -88.921 -88.921 -10.241 -10.241 -10.241 -10.240 -10.226
-10.226 -10.206 -10.206 -10.206 -10.206 -10.205 -10.205  -7.981
 -7.981  -7.981  -5.945  -5.945  -5.945  -5.941  -5.941  -5.941
 -5.938  -5.938  -5.937  -0.907  -0.892  -0.876  -0.787  -0.756
 -0.745  -0.745  -0.732  -0.698  -0.618  -0.597  -0.570  -0.560
 -0.536  -0.535  -0.529  -0.502  -0.462  -0.423  -0.421  -0.417
 -0.415  -0.408  -0.402  -0.399  -0.386  -0.378  -0.370  -0.361
 -0.350  -0.344  -0.295  -0.267  -0.263  -0.261  -0.248  -0.203

          Ground-State Mulliken Net Atomic Charges

     Atom                 Charge (a.u.)
  ----------------------------------------
      1 H                     0.196395
      2 H                     0.119492
      3 C                     0.032283
      4 C                    -0.339403
      5 S                    -0.118807
      6 C                     0.557902
      7 H                     0.128973
      8 C                    -0.493035
      9 H                     0.119458
     10 C                    -0.082104
     11 C                    -0.097295
     12 S                    -0.247184
     13 C                     0.144797
     14 H                     0.128513
     15 C                    -0.168842
     16 C                    -0.487518
     17 H                     0.136357
     18 C                     0.540802
     19 S                    -0.088691
     20 C                    -0.335442
     21 C                     0.039928
     22 H                     0.118292
     23 H                     0.195130
  ----------------------------------------
  Sum of atomic charges =     0.000000

                    Cartesian Multipole Moments
 -----------------------------------------------------------------
    Charge (ESU x 10^10)
                 0.0000
    Dipole Moment (Debye)
         X      -0.0130      Y       0.3950      Z       0.2032
       Tot       0.4444
    Quadrupole Moments (Debye-Ang)
        XX     -90.2927     XY       0.0685     YY    -103.0497
        XZ      -0.2257     YZ       3.3520     ZZ    -114.2043

 Total job time:  96.85s(wall), 101.73s(cpu)
        *  Thank you very much for using Q-Chem.  Have a nice day.  *
