 Q-Chem 4.4, Q-Chem, Inc., Pleasanton, CA (2016)
 Q-Chem 4.4.2 for Intel X86 EM64T Linux

User input:
--------------------------------------------------------------
$molecule
 0  1
 H           6.23254100       -0.22338900        0.17638100
 H           5.29752400        2.22850500       -0.10953100
 C           5.19733500        0.07486000        0.08356300
 C           4.68347900        1.33634400       -0.06443600
 S           3.94559900       -1.12581000        0.11905200
 C           3.26267300        1.34659400       -0.16511200
 H           2.67740100        2.24810800       -0.30841700
 C           2.69562400        0.08941900       -0.09094600
 H           1.33241900       -2.39005500       -0.68762600
 C           1.29739300       -0.28590200       -0.16150800
 C           0.73808300       -1.51455700       -0.45078400
 S           0.03601800        0.89451200        0.14982500
 C          -0.68041100       -1.51067300       -0.44936800
 H          -1.28012400       -2.38277100       -0.68510300
 C          -1.23220500       -0.27900200       -0.15852500
 C          -2.62830100        0.10383400       -0.08465000
 H          -3.44264313       -1.15810892        1.48118356
 C          -3.62163871       -0.38751611        0.73959116
 S          -3.27729680        1.35204534       -1.13531343
 C          -4.88671346        0.23572571        0.53916848
 C          -4.85655187        1.20016818       -0.43357732
 H          -5.77876946       -0.01632237        1.10108448
 H          -5.66402772        1.82878536       -0.78292020
$end

$rem
         jobtype = opt
        exchange = b3lyp
           basis = 6-31++g**
  max_scf_cycles = 150
      mem_static = 281
       mem_total = 2818
      sym_ignore = true
        symmetry = false
          thresh = 12
$end

$opt
CONSTRAINT
tors 13 15 16 18 60.0
ENDCONSTRAINT
$end

--------------------------------------------------------------

   16   -1656.6615931396      2.56E-09 Convergence criterion met
 Total energy in the final basis set = -1656.6615931396
   12   -1656.6618389546      4.33E-09 Convergence criterion met
 Total energy in the final basis set = -1656.6618389546
   11   -1656.6618796055      5.65E-09 Convergence criterion met
 Total energy in the final basis set = -1656.6618796055
   10   -1656.6618900563      6.16E-09 Convergence criterion met
 Total energy in the final basis set = -1656.6618900563
   10   -1656.6618963473      9.98E-09 Convergence criterion met
 Total energy in the final basis set = -1656.6618963473
   10   -1656.6618984539      7.75E-09 Convergence criterion met
 Total energy in the final basis set = -1656.6618984539

             Standard Nuclear Orientation (Angstroms)
    I     Atom           X                Y                Z
 ----------------------------------------------------------------
    1      H       6.2348958883    -0.2415168474     0.2013649425
    2      H       5.3210628263     2.2107370877    -0.1444332669
    3      C       5.2024921910     0.0628709809     0.0977220242
    4      C       4.6997024099     1.3247541022    -0.0813404487
    5      S       3.9406028718    -1.1260867296     0.1559003213
    6      C       3.2791797733     1.3440399884    -0.1877804457
    7      H       2.7014870222     2.2467355236    -0.3529316925
    8      C       2.7021853520     0.0939437005    -0.0871188088
    9      H       1.3258556580    -2.3809841974    -0.6634483868
   10      C       1.2994091568    -0.2718477938    -0.1564179033
   11      C       0.7352186661    -1.5010434030    -0.4335244778
   12      S       0.0460631939     0.9186687530     0.1365291953
   13      C      -0.6855889666    -1.4876535395    -0.4356145841
   14      H      -1.2989950357    -2.3498774799    -0.6709336910
   15      C      -1.2275242432    -0.2556197483    -0.1432554729
   16      C      -2.6376050184     0.1178646029    -0.0937392407
   17      H      -3.4240417236    -1.1887102556     1.4375729404
   18      C      -3.6223111251    -0.4041683716     0.7162073762
   19      S      -3.2921936015     1.4010502650    -1.0973550270
   20      C      -4.8982408941     0.2036577050     0.5233565569
   21      C      -4.8737104452     1.1998796663    -0.4174125263
   22      H      -5.7908602241    -0.0782477775     1.0701783586
   23      H      -5.6896768819     1.8263479584    -0.7514940129
 ----------------------------------------------------------------

   10   -1656.6618992295      5.28E-09 Convergence criterion met
 Total energy in the final basis set = -1656.6618992295
 Final energy is   -1656.66189922954
 **  OPTIMIZATION CONVERGED  **

                    Orbital Energies (a.u.)
 --------------------------------------------------------------

 Alpha MOs
 -- Occupied --
-88.921 -88.921 -88.921 -10.241 -10.240 -10.239 -10.238 -10.226
-10.226 -10.206 -10.206 -10.205 -10.205 -10.205 -10.205  -7.981
 -7.980  -7.980  -5.945  -5.944  -5.944  -5.941  -5.941  -5.940
 -5.938  -5.937  -5.937  -0.906  -0.892  -0.876  -0.786  -0.754
 -0.745  -0.743  -0.733  -0.697  -0.616  -0.594  -0.568  -0.564
 -0.537  -0.534  -0.528  -0.499  -0.463  -0.421  -0.419  -0.417
 -0.415  -0.407  -0.402  -0.400  -0.384  -0.376  -0.370  -0.359
 -0.352  -0.344  -0.285  -0.267  -0.262  -0.259  -0.248  -0.208

          Ground-State Mulliken Net Atomic Charges

     Atom                 Charge (a.u.)
  ----------------------------------------
      1 H                     0.196483
      2 H                     0.119283
      3 C                     0.032555
      4 C                    -0.409233
      5 S                    -0.128090
      6 C                     0.570404
      7 H                     0.128541
      8 C                    -0.413156
      9 H                     0.125144
     10 C                    -0.084377
     11 C                    -0.066423
     12 S                    -0.103850
     13 C                     0.049045
     14 H                     0.134038
     15 C                    -0.231265
     16 C                    -0.418217
     17 H                     0.152801
     18 C                     0.418375
     19 S                    -0.014082
     20 C                    -0.417026
     21 C                     0.042703
     22 H                     0.119546
     23 H                     0.196800
  ----------------------------------------
  Sum of atomic charges =     0.000000

                    Cartesian Multipole Moments
 -----------------------------------------------------------------
    Charge (ESU x 10^10)
                 0.0000
    Dipole Moment (Debye)
         X      -0.1688      Y      -0.2505      Z       0.1349
       Tot       0.3308
    Quadrupole Moments (Debye-Ang)
        XX     -89.7707     XY       1.2446     YY    -103.1770
        XZ      -1.5242     YZ      -1.7693     ZZ    -113.7423

 Total job time:  116.13s(wall), 122.81s(cpu)
        *  Thank you very much for using Q-Chem.  Have a nice day.  *
