 Q-Chem 4.4, Q-Chem, Inc., Pleasanton, CA (2016)
 Q-Chem 4.4.2 for Intel X86 EM64T Linux

User input:
--------------------------------------------------------------
$molecule
 0  1
 H           6.23254100       -0.22338900        0.17638100
 H           5.29752400        2.22850500       -0.10953100
 C           5.19733500        0.07486000        0.08356300
 C           4.68347900        1.33634400       -0.06443600
 S           3.94559900       -1.12581000        0.11905200
 C           3.26267300        1.34659400       -0.16511200
 H           2.67740100        2.24810800       -0.30841700
 C           2.69562400        0.08941900       -0.09094600
 H           1.33241900       -2.39005500       -0.68762600
 C           1.29739300       -0.28590200       -0.16150800
 C           0.73808300       -1.51455700       -0.45078400
 S           0.03601800        0.89451200        0.14982500
 C          -0.68041100       -1.51067300       -0.44936800
 H          -1.28012400       -2.38277100       -0.68510300
 C          -1.23220500       -0.27900200       -0.15852500
 C          -2.62830100        0.10383400       -0.08465000
 H          -3.48497026       -0.65457659       -1.92813011
 C          -3.63984182       -0.11853014       -0.99835542
 S          -3.25064534        0.97833946        1.30497170
 C          -4.90204922        0.39688517       -0.58581050
 C          -4.85236931        1.00839086        0.63929606
 H          -5.80998942        0.30833174       -1.17133983
 H          -5.65621791        1.47643169        1.19064210
$end

$rem
         jobtype = opt
        exchange = b3lyp
           basis = 6-31++g**
  max_scf_cycles = 150
      mem_static = 281
       mem_total = 2818
      sym_ignore = true
        symmetry = false
          thresh = 12
$end

$opt
CONSTRAINT
tors 13 15 16 18 -50.0
ENDCONSTRAINT
$end

--------------------------------------------------------------

   15   -1656.6620669947      8.49E-09 Convergence criterion met
 Total energy in the final basis set = -1656.6620669947
   12   -1656.6624497606      6.51E-09 Convergence criterion met
 Total energy in the final basis set = -1656.6624497606
   11   -1656.6625329380      9.30E-09 Convergence criterion met
 Total energy in the final basis set = -1656.6625329380
   10   -1656.6625456997      5.78E-09 Convergence criterion met
 Total energy in the final basis set = -1656.6625456997
   10   -1656.6625492661      4.17E-09 Convergence criterion met
 Total energy in the final basis set = -1656.6625492661
   10   -1656.6625503788      3.48E-09 Convergence criterion met
 Total energy in the final basis set = -1656.6625503788

             Standard Nuclear Orientation (Angstroms)
    I     Atom           X                Y                Z
 ----------------------------------------------------------------
    1      H       6.2350270700    -0.2542281299     0.1728767515
    2      H       5.3233433161     2.2102205222    -0.0798617195
    3      C       5.2028865882     0.0549535759     0.0813963478
    4      C       4.7011956092     1.3230575900    -0.0501239087
    5      S       3.9399780743    -1.1342450906     0.0954987958
    6      C       3.2806834087     1.3475653162    -0.1558463402
    7      H       2.7041882500     2.2565438532    -0.2872850141
    8      C       2.7021913107     0.0953203886    -0.1008678266
    9      H       1.3209481345    -2.3674227332    -0.7197097069
   10      C       1.2990329177    -0.2658993195    -0.1812329892
   11      C       0.7320872422    -1.4877237505    -0.4843381336
   12      S       0.0473302387     0.9231589107     0.1283020363
   13      C      -0.6880514507    -1.4784236802    -0.4619045519
   14      H      -1.3019674919    -2.3526414183    -0.6460954882
   15      C      -1.2282009799    -0.2457665003    -0.1649809509
   16      C      -2.6366608440     0.1115183544    -0.0636071147
   17      H      -3.4550725252    -0.6687411447    -1.9067911304
   18      C      -3.6396783191    -0.1511533134    -0.9723532028
   19      S      -3.2744579587     1.0092967255     1.3033142557
   20      C      -4.9136884111     0.3480400856    -0.5717372457
   21      C      -4.8716135789     1.0068199651     0.6293426845
   22      H      -5.8182232554     0.2364250198    -1.1587939449
   23      H      -5.6823126253     1.4886139630     1.1588873966
 ----------------------------------------------------------------

   10   -1656.6625508700      2.95E-09 Convergence criterion met
 Total energy in the final basis set = -1656.6625508700
 Final energy is   -1656.66255086996
 **  OPTIMIZATION CONVERGED  **

                    Orbital Energies (a.u.)
 --------------------------------------------------------------

 Alpha MOs
 -- Occupied --
-88.921 -88.921 -88.921 -10.241 -10.240 -10.239 -10.239 -10.226
-10.226 -10.206 -10.206 -10.205 -10.205 -10.205 -10.205  -7.980
 -7.980  -7.980  -5.945  -5.944  -5.944  -5.941  -5.941  -5.941
 -5.937  -5.937  -5.937  -0.906  -0.892  -0.876  -0.786  -0.755
 -0.745  -0.744  -0.733  -0.697  -0.616  -0.594  -0.568  -0.564
 -0.537  -0.534  -0.528  -0.499  -0.463  -0.422  -0.419  -0.418
 -0.415  -0.407  -0.403  -0.398  -0.384  -0.376  -0.370  -0.359
 -0.352  -0.344  -0.289  -0.266  -0.262  -0.260  -0.247  -0.207

          Ground-State Mulliken Net Atomic Charges

     Atom                 Charge (a.u.)
  ----------------------------------------
      1 H                     0.196736
      2 H                     0.119612
      3 C                     0.033817
      4 C                    -0.391556
      5 S                    -0.115142
      6 C                     0.508002
      7 H                     0.125884
      8 C                    -0.463989
      9 H                     0.122588
     10 C                    -0.029065
     11 C                    -0.151238
     12 S                    -0.150640
     13 C                     0.146698
     14 H                     0.137906
     15 C                    -0.175731
     16 C                    -0.355931
     17 H                     0.148426
     18 C                     0.334995
     19 S                     0.015205
     20 C                    -0.392928
     21 C                     0.021188
     22 H                     0.119816
     23 H                     0.195345
  ----------------------------------------
  Sum of atomic charges =     0.000000

                    Cartesian Multipole Moments
 -----------------------------------------------------------------
    Charge (ESU x 10^10)
                 0.0000
    Dipole Moment (Debye)
         X      -0.2061      Y      -0.1284      Z      -0.6425
       Tot       0.6869
    Quadrupole Moments (Debye-Ang)
        XX     -89.5900     XY       0.8476     YY    -104.6698
        XZ       1.6336     YZ       3.0164     ZZ    -112.1805

 Total job time:  113.62s(wall), 120.89s(cpu)
        *  Thank you very much for using Q-Chem.  Have a nice day.  *
