 Q-Chem 4.4, Q-Chem, Inc., Pleasanton, CA (2016)
 Q-Chem 4.4.2 for Intel X86 EM64T Linux

User input:
--------------------------------------------------------------
$molecule
 0  1
 H           6.23254100       -0.22338900        0.17638100
 H           5.29752400        2.22850500       -0.10953100
 C           5.19733500        0.07486000        0.08356300
 C           4.68347900        1.33634400       -0.06443600
 S           3.94559900       -1.12581000        0.11905200
 C           3.26267300        1.34659400       -0.16511200
 H           2.67740100        2.24810800       -0.30841700
 C           2.69562400        0.08941900       -0.09094600
 H           1.33241900       -2.39005500       -0.68762600
 C           1.29739300       -0.28590200       -0.16150800
 C           0.73808300       -1.51455700       -0.45078400
 S           0.03601800        0.89451200        0.14982500
 C          -0.68041100       -1.51067300       -0.44936800
 H          -1.28012400       -2.38277100       -0.68510300
 C          -1.23220500       -0.27900200       -0.15852500
 C          -2.62830100        0.10383400       -0.08465000
 H          -2.58686597        2.10176879        0.76035149
 C          -3.18365091        1.27829969        0.38410906
 S          -3.89171986       -0.98564970       -0.63229841
 C          -4.60503803        1.30975308        0.29645584
 C          -5.13057645        0.16336170       -0.23916489
 H          -5.20991854        2.15289071        0.60995263
 H          -6.16803903       -0.07829241       -0.42488497
$end

$rem
         jobtype = opt
        exchange = b3lyp
           basis = 6-31++g**
  max_scf_cycles = 150
      mem_static = 281
       mem_total = 2818
      sym_ignore = true
        symmetry = false
          thresh = 12
$end

$opt
CONSTRAINT
tors 13 15 16 18 170.0
ENDCONSTRAINT
$end

--------------------------------------------------------------

   15   -1656.6641103415      4.36E-09 Convergence criterion met
 Total energy in the final basis set = -1656.6641103415
   11   -1656.6642133033      6.38E-09 Convergence criterion met
 Total energy in the final basis set = -1656.6642133033
   11   -1656.6642345576      3.51E-09 Convergence criterion met
 Total energy in the final basis set = -1656.6642345576
    9   -1656.6642388160      8.28E-09 Convergence criterion met
 Total energy in the final basis set = -1656.6642388160
   10   -1656.6642406451      4.81E-09 Convergence criterion met
 Total energy in the final basis set = -1656.6642406451

             Standard Nuclear Orientation (Angstroms)
    I     Atom           X                Y                Z
 ----------------------------------------------------------------
    1      H       6.2303784839    -0.2326905560     0.1994770272
    2      H       5.3054177979     2.2225115836    -0.0901897728
    3      C       5.1968555588     0.0688937513     0.0989268081
    4      C       4.6882329889     1.3322151187    -0.0517269198
    5      S       3.9411069257    -1.1277949625     0.1222543777
    6      C       3.2684095798     1.3470638442    -0.1646866520
    7      H       2.6874068953     2.2508308598    -0.3113229557
    8      C       2.6967012806     0.0916333823    -0.0972248260
    9      H       1.3313132105    -2.3880610607    -0.6896459990
   10      C       1.2981758345    -0.2793133468    -0.1816850923
   11      C       0.7378488145    -1.5078874521    -0.4685925761
   12      S       0.0373671926     0.9090819336     0.1016894793
   13      C      -0.6802902644    -1.5032652962    -0.4647860292
   14      H      -1.2791663389    -2.3849778356    -0.6641850576
   15      C      -1.2327399483    -0.2702704813    -0.1795311532
   16      C      -2.6288093231     0.1095135750    -0.0997117662
   17      H      -2.5913098245     2.1049759740     0.7542202104
   18      C      -3.1850131140     1.2859137731     0.3636496232
   19      S      -3.8941495770    -0.9853363633    -0.6353253473
   20      C      -4.6075535991     1.3089908634     0.2962461333
   21      C      -5.1346969867     0.1530356512    -0.2161163014
   22      H      -5.2125362710     2.1480105084     0.6203130329
   23      H      -6.1737101059    -0.1009246040    -0.3747104935
 ----------------------------------------------------------------

   10   -1656.6642415119      4.85E-09 Convergence criterion met
 Total energy in the final basis set = -1656.6642415119
 Final energy is   -1656.66424151186
 **  OPTIMIZATION CONVERGED  **

                    Orbital Energies (a.u.)
 --------------------------------------------------------------

 Alpha MOs
 -- Occupied --
-88.921 -88.921 -88.921 -10.242 -10.242 -10.241 -10.241 -10.227
-10.227 -10.207 -10.206 -10.206 -10.206 -10.205 -10.205  -7.981
 -7.981  -7.981  -5.945  -5.945  -5.945  -5.941  -5.941  -5.941
 -5.938  -5.938  -5.937  -0.907  -0.893  -0.877  -0.788  -0.757
 -0.746  -0.745  -0.732  -0.698  -0.618  -0.598  -0.570  -0.560
 -0.536  -0.535  -0.530  -0.502  -0.462  -0.423  -0.422  -0.417
 -0.416  -0.409  -0.402  -0.398  -0.388  -0.379  -0.370  -0.362
 -0.350  -0.343  -0.299  -0.268  -0.263  -0.260  -0.249  -0.200

          Ground-State Mulliken Net Atomic Charges

     Atom                 Charge (a.u.)
  ----------------------------------------
      1 H                     0.196571
      2 H                     0.119747
      3 C                     0.013356
      4 C                    -0.302327
      5 S                    -0.102036
      6 C                     0.615331
      7 H                     0.134905
      8 C                    -0.429006
      9 H                     0.126907
     10 C                    -0.242192
     11 C                     0.134255
     12 S                    -0.422507
     13 C                     0.036075
     14 H                     0.118790
     15 C                    -0.232944
     16 C                    -0.410554
     17 H                     0.126153
     18 C                     0.608870
     19 S                    -0.130275
     20 C                    -0.290463
     21 C                     0.011867
     22 H                     0.121133
     23 H                     0.198347
  ----------------------------------------
  Sum of atomic charges =     0.000000

                    Cartesian Multipole Moments
 -----------------------------------------------------------------
    Charge (ESU x 10^10)
                 0.0000
    Dipole Moment (Debye)
         X       0.0118      Y       0.5047      Z       0.0166
       Tot       0.5051
    Quadrupole Moments (Debye-Ang)
        XX     -90.3609     XY      -0.0041     YY    -101.5024
        XZ      -0.1201     YZ       2.6867     ZZ    -115.7921

 Total job time:  96.10s(wall), 100.99s(cpu)
        *  Thank you very much for using Q-Chem.  Have a nice day.  *
