 Q-Chem 4.4, Q-Chem, Inc., Pleasanton, CA (2016)
 Q-Chem 4.4.2 for Intel X86 EM64T Linux

User input:
--------------------------------------------------------------
$molecule
 0  1
 H           6.23254100       -0.22338900        0.17638100
 H           5.29752400        2.22850500       -0.10953100
 C           5.19733500        0.07486000        0.08356300
 C           4.68347900        1.33634400       -0.06443600
 S           3.94559900       -1.12581000        0.11905200
 C           3.26267300        1.34659400       -0.16511200
 H           2.67740100        2.24810800       -0.30841700
 C           2.69562400        0.08941900       -0.09094600
 H           1.33241900       -2.39005500       -0.68762600
 C           1.29739300       -0.28590200       -0.16150800
 C           0.73808300       -1.51455700       -0.45078400
 S           0.03601800        0.89451200        0.14982500
 C          -0.68041100       -1.51067300       -0.44936800
 H          -1.28012400       -2.38277100       -0.68510300
 C          -1.23220500       -0.27900200       -0.15852500
 C          -2.62830100        0.10383400       -0.08465000
 H          -3.52102031       -1.39148323        1.20940039
 C          -3.66141298       -0.50562658        0.60000735
 S          -3.22139082        1.51816349       -0.93965720
 C          -4.91264865        0.15837155        0.44990894
 C          -4.83237393        1.27129166       -0.34523770
 H          -5.83117066       -0.17263691        0.92085739
 H          -5.61954597        1.95964719       -0.62045418
$end

$rem
         jobtype = opt
        exchange = b3lyp
           basis = 6-31++g**
  max_scf_cycles = 150
      mem_static = 281
       mem_total = 2818
      sym_ignore = true
        symmetry = false
          thresh = 12
$end

$opt
CONSTRAINT
tors 13 15 16 18 50.0
ENDCONSTRAINT
$end

--------------------------------------------------------------

   16   -1656.6624025430      2.53E-09 Convergence criterion met
 Total energy in the final basis set = -1656.6624025430
   12   -1656.6626004747      4.87E-09 Convergence criterion met
 Total energy in the final basis set = -1656.6626004747
   11   -1656.6626373645      8.10E-09 Convergence criterion met
 Total energy in the final basis set = -1656.6626373645
   10   -1656.6626426182      4.80E-09 Convergence criterion met
 Total energy in the final basis set = -1656.6626426182
   10   -1656.6626453345      6.41E-09 Convergence criterion met
 Total energy in the final basis set = -1656.6626453345
   10   -1656.6626463744      5.65E-09 Convergence criterion met
 Total energy in the final basis set = -1656.6626463744

             Standard Nuclear Orientation (Angstroms)
    I     Atom           X                Y                Z
 ----------------------------------------------------------------
    1      H       6.2351403668    -0.2508997621     0.1947668439
    2      H       5.3255089804     2.2046512839    -0.1387928913
    3      C       5.2031599930     0.0560427946     0.0945424534
    4      C       4.7024866061     1.3196618277    -0.0781701066
    5      S       3.9389475127    -1.1307134619     0.1501937400
    6      C       3.2818681945     1.3423184497    -0.1817925455
    7      H       2.7057544573     2.2468543331    -0.3423298849
    8      C       2.7024135952     0.0928673529    -0.0853165819
    9      H       1.3182844764    -2.3770533914    -0.6672177317
   10      C       1.2992188410    -0.2695105370    -0.1537282657
   11      C       0.7304961326    -1.4959735181    -0.4343255364
   12      S       0.0493111295     0.9243694189     0.1433693145
   13      C      -0.6896128304    -1.4778430920    -0.4391236388
   14      H      -1.3045061735    -2.3366425750    -0.6827085137
   15      C      -1.2277823556    -0.2431890283    -0.1460606495
   16      C      -2.6346243329     0.1293926513    -0.0915057528
   17      H      -3.4825657638    -1.3993955949     1.1820107829
   18      C      -3.6521128734    -0.5126899049     0.5818996741
   19      S      -3.2510963020     1.5551567607    -0.9089171526
   20      C      -4.9199365662     0.1226037941     0.4336562019
   21      C      -4.8594880737     1.2554546176    -0.3354164809
   22      H      -5.8336325484    -0.2388870365     0.8916658845
   23      H      -5.6617477853     1.9311687875    -0.5990591728
 ----------------------------------------------------------------

   10   -1656.6626468865      4.69E-09 Convergence criterion met
 Total energy in the final basis set = -1656.6626468865
 Final energy is   -1656.66264688654
 **  OPTIMIZATION CONVERGED  **

                    Orbital Energies (a.u.)
 --------------------------------------------------------------

 Alpha MOs
 -- Occupied --
-88.921 -88.921 -88.921 -10.241 -10.240 -10.239 -10.239 -10.226
-10.226 -10.206 -10.206 -10.206 -10.205 -10.205 -10.205  -7.980
 -7.980  -7.980  -5.945  -5.945  -5.944  -5.941  -5.941  -5.941
 -5.938  -5.937  -5.937  -0.906  -0.892  -0.876  -0.786  -0.755
 -0.745  -0.744  -0.734  -0.697  -0.616  -0.594  -0.568  -0.564
 -0.537  -0.534  -0.528  -0.499  -0.463  -0.421  -0.420  -0.418
 -0.415  -0.408  -0.402  -0.399  -0.385  -0.376  -0.370  -0.359
 -0.352  -0.344  -0.288  -0.266  -0.262  -0.260  -0.249  -0.206

          Ground-State Mulliken Net Atomic Charges

     Atom                 Charge (a.u.)
  ----------------------------------------
      1 H                     0.196534
      2 H                     0.119383
      3 C                     0.033996
      4 C                    -0.407216
      5 S                    -0.125244
      6 C                     0.556301
      7 H                     0.127765
      8 C                    -0.389257
      9 H                     0.124785
     10 C                    -0.108335
     11 C                    -0.049923
     12 S                    -0.122287
     13 C                     0.001537
     14 H                     0.134968
     15 C                    -0.139416
     16 C                    -0.391690
     17 H                     0.150842
     18 C                     0.364607
     19 S                    -0.034215
     20 C                    -0.386349
     21 C                     0.027078
     22 H                     0.119915
     23 H                     0.196224
  ----------------------------------------
  Sum of atomic charges =     0.000000

                    Cartesian Multipole Moments
 -----------------------------------------------------------------
    Charge (ESU x 10^10)
                 0.0000
    Dipole Moment (Debye)
         X      -0.1926      Y      -0.3122      Z       0.0679
       Tot       0.3730
    Quadrupole Moments (Debye-Ang)
        XX     -89.6352     XY       1.6014     YY    -102.4369
        XZ      -1.3728     YZ      -1.5987     ZZ    -114.6076

 Total job time:  115.62s(wall), 122.77s(cpu)
        *  Thank you very much for using Q-Chem.  Have a nice day.  *
