 Q-Chem 4.4, Q-Chem, Inc., Pleasanton, CA (2016)
 Q-Chem 4.4.2 for Intel X86 EM64T Linux

User input:
--------------------------------------------------------------
$molecule
 0  1
 H           6.23254100       -0.22338900        0.17638100
 H           5.29752400        2.22850500       -0.10953100
 C           5.19733500        0.07486000        0.08356300
 C           4.68347900        1.33634400       -0.06443600
 S           3.94559900       -1.12581000        0.11905200
 C           3.26267300        1.34659400       -0.16511200
 H           2.67740100        2.24810800       -0.30841700
 C           2.69562400        0.08941900       -0.09094600
 H           1.33241900       -2.39005500       -0.68762600
 C           1.29739300       -0.28590200       -0.16150800
 C           0.73808300       -1.51455700       -0.45078400
 S           0.03601800        0.89451200        0.14982500
 C          -0.68041100       -1.51067300       -0.44936800
 H          -1.28012400       -2.38277100       -0.68510300
 C          -1.23220500       -0.27900200       -0.15852500
 C          -2.62830100        0.10383400       -0.08465000
 H          -2.57869408        2.26881196        0.04913106
 C          -3.17876112        1.36604733        0.02178963
 S          -3.89835132       -1.10801788       -0.12348235
 C          -4.60263533        1.36381973        0.06167731
 C          -5.13510904        0.10376693       -0.01598920
 H          -5.20511714        2.26191745        0.13569003
 H          -6.17635188       -0.18782847       -0.01434277
$end

$rem
         jobtype = opt
        exchange = b3lyp
           basis = 6-31++g**
  max_scf_cycles = 150
      mem_static = 281
       mem_total = 2818
      sym_ignore = true
        symmetry = false
          thresh = 12
$end

$opt
CONSTRAINT
tors 13 15 16 18 -170.0
ENDCONSTRAINT
$end

--------------------------------------------------------------

   15   -1656.6643208255      4.68E-09 Convergence criterion met
 Total energy in the final basis set = -1656.6643208255
   11   -1656.6643329109      3.39E-09 Convergence criterion met
 Total energy in the final basis set = -1656.6643329109
   10   -1656.6643353919      5.16E-09 Convergence criterion met
 Total energy in the final basis set = -1656.6643353919

             Standard Nuclear Orientation (Angstroms)
    I     Atom           X                Y                Z
 ----------------------------------------------------------------
    1      H       6.2314450708    -0.2265767836     0.1892062472
    2      H       5.2999166810     2.2264984590    -0.0975394911
    3      C       5.1968917955     0.0727345337     0.0925847673
    4      C       4.6848354511     1.3348742806    -0.0561599377
    5      S       3.9438872414    -1.1268018637     0.1216461729
    6      C       3.2645131056     1.3466037609    -0.1630525201
    7      H       2.6807918418     2.2489013588    -0.3077998995
    8      C       2.6959075335     0.0898537916    -0.0927566963
    9      H       1.3325074450    -2.3897445965    -0.6913015656
   10      C       1.2979605982    -0.2841874210    -0.1703992103
   11      C       0.7385056833    -1.5125115556    -0.4602474602
   12      S       0.0365227301     0.8989267588     0.1309090715
   13      C      -0.6795901771    -1.5080358629    -0.4597955716
   14      H      -1.2773865534    -2.3838228778    -0.6868374923
   15      C      -1.2327345758    -0.2755792090    -0.1730222972
   16      C      -2.6284752366     0.1048484943    -0.0953842662
   17      H      -2.5839289191     2.2716949236     0.0277807684
   18      C      -3.1810420177     1.3667847569     0.0067751432
   19      S      -3.8983549440    -1.1090697602    -0.1151531424
   20      C      -4.6041422762     1.3630373783     0.0628534328
   21      C      -5.1355923060     0.1018694912     0.0026659744
   22      H      -5.2065664134     2.2608498194     0.1404470311
   23      H      -6.1758436678    -0.1926138268     0.0218696518
 ----------------------------------------------------------------

    9   -1656.6643360671      8.54E-09 Convergence criterion met
 Total energy in the final basis set = -1656.6643360671
 Final energy is   -1656.66433606715
 **  OPTIMIZATION CONVERGED  **

                    Orbital Energies (a.u.)
 --------------------------------------------------------------

 Alpha MOs
 -- Occupied --
-88.921 -88.921 -88.921 -10.242 -10.242 -10.241 -10.241 -10.227
-10.227 -10.207 -10.206 -10.206 -10.206 -10.205 -10.205  -7.981
 -7.981  -7.981  -5.945  -5.945  -5.945  -5.941  -5.941  -5.941
 -5.938  -5.938  -5.937  -0.907  -0.893  -0.877  -0.788  -0.757
 -0.746  -0.745  -0.732  -0.698  -0.618  -0.598  -0.570  -0.560
 -0.536  -0.535  -0.530  -0.502  -0.462  -0.423  -0.422  -0.417
 -0.416  -0.409  -0.402  -0.397  -0.389  -0.379  -0.371  -0.362
 -0.350  -0.343  -0.298  -0.268  -0.263  -0.260  -0.250  -0.200

          Ground-State Mulliken Net Atomic Charges

     Atom                 Charge (a.u.)
  ----------------------------------------
      1 H                     0.195492
      2 H                     0.119198
      3 C                     0.012167
      4 C                    -0.374270
      5 S                    -0.063294
      6 C                     0.445735
      7 H                     0.129866
      8 C                    -0.290265
      9 H                     0.121696
     10 C                    -0.195048
     11 C                     0.069026
     12 S                    -0.302615
     13 C                    -0.046513
     14 H                     0.115327
     15 C                    -0.162430
     16 C                    -0.280568
     17 H                     0.122258
     18 C                     0.480351
     19 S                    -0.100214
     20 C                    -0.326708
     21 C                     0.011854
     22 H                     0.121158
     23 H                     0.197798
  ----------------------------------------
  Sum of atomic charges =     0.000000

                    Cartesian Multipole Moments
 -----------------------------------------------------------------
    Charge (ESU x 10^10)
                 0.0000
    Dipole Moment (Debye)
         X       0.0126      Y       0.5541      Z      -0.2054
       Tot       0.5911
    Quadrupole Moments (Debye-Ang)
        XX     -90.4001     XY      -0.0061     YY    -100.7370
        XZ      -0.1020     YZ       1.1313     ZZ    -116.5182

 Total job time:  65.24s(wall), 68.92s(cpu)
        *  Thank you very much for using Q-Chem.  Have a nice day.  *
