 Q-Chem 4.4, Q-Chem, Inc., Pleasanton, CA (2016)
 Q-Chem 4.4.2 for Intel X86 EM64T Linux

User input:
--------------------------------------------------------------
$molecule
 0  1
 H           6.23254100       -0.22338900        0.17638100
 H           5.29752400        2.22850500       -0.10953100
 C           5.19733500        0.07486000        0.08356300
 C           4.68347900        1.33634400       -0.06443600
 S           3.94559900       -1.12581000        0.11905200
 C           3.26267300        1.34659400       -0.16511200
 H           2.67740100        2.24810800       -0.30841700
 C           2.69562400        0.08941900       -0.09094600
 H           1.33241900       -2.39005500       -0.68762600
 C           1.29739300       -0.28590200       -0.16150800
 C           0.73808300       -1.51455700       -0.45078400
 S           0.03601800        0.89451200        0.14982500
 C          -0.68041100       -1.51067300       -0.44936800
 H          -1.28012400       -2.38277100       -0.68510300
 C          -1.23220500       -0.27900200       -0.15852500
 C          -2.62830100        0.10383400       -0.08465000
 H          -2.92409045        1.37020064       -1.82140327
 C          -3.35336453        0.91417908       -0.93620268
 S          -3.65271224       -0.47152993        1.22020965
 C          -4.71720197        1.06478236       -0.55373719
 C          -5.03039072        0.36972633        0.58472815
 H          -5.43664369        1.65742485       -1.10710885
 H          -5.98367097        0.30162021        1.09053006
$end

$rem
         jobtype = opt
        exchange = b3lyp
           basis = 6-31++g**
  max_scf_cycles = 150
      mem_static = 281
       mem_total = 2818
      sym_ignore = true
        symmetry = false
          thresh = 12
$end

$opt
CONSTRAINT
tors 13 15 16 18 -110.0
ENDCONSTRAINT
$end

--------------------------------------------------------------

   15   -1656.6609936372      9.48E-09 Convergence criterion met
 Total energy in the final basis set = -1656.6609936372
   11   -1656.6612254007      6.74E-09 Convergence criterion met
 Total energy in the final basis set = -1656.6612254007
   11   -1656.6612696176      8.00E-09 Convergence criterion met
 Total energy in the final basis set = -1656.6612696176
   12   -1656.6612980215      2.68E-09 Convergence criterion met
 Total energy in the final basis set = -1656.6612980215
   12   -1656.6613199127      3.48E-09 Convergence criterion met
 Total energy in the final basis set = -1656.6613199127
   10   -1656.6613252930      9.00E-09 Convergence criterion met
 Total energy in the final basis set = -1656.6613252930
   10   -1656.6613264157      3.79E-09 Convergence criterion met
 Total energy in the final basis set = -1656.6613264157

             Standard Nuclear Orientation (Angstroms)
    I     Atom           X                Y                Z
 ----------------------------------------------------------------
    1      H       6.2385360417    -0.2298407077     0.1411027074
    2      H       5.3091846469     2.2209879579    -0.1722734399
    3      C       5.2034116533     0.0708481307     0.0552224348
    4      C       4.6926347165     1.3318376054    -0.1064719957
    5      S       3.9476119180    -1.1239294614     0.1235235803
    6      C       3.2705055811     1.3456560546    -0.1909310936
    7      H       2.6865370509     2.2470992756    -0.3400666530
    8      C       2.7004107966     0.0924496284    -0.0910575448
    9      H       1.3264310753    -2.3827500711    -0.6710472089
   10      C       1.2978310088    -0.2790051915    -0.1404571167
   11      C       0.7353771414    -1.5083164939    -0.4220470992
   12      S       0.0431019223     0.8999581146     0.1857203628
   13      C      -0.6854404031    -1.5038436586    -0.3968893705
   14      H      -1.2969440666    -2.3710113245    -0.6195464512
   15      C      -1.2285663468    -0.2773801581    -0.0874948229
   16      C      -2.6351630801     0.1207277391    -0.0378528590
   17      H      -2.8475374984     1.4655721850    -1.7165296087
   18      C      -3.3249851540     0.9587670411    -0.8853535759
   19      S      -3.7170967991    -0.5465161360     1.1714943363
   20      C      -4.7103695495     1.0740809967    -0.5665329799
   21      C      -5.0702566310     0.3141151842     0.5162328660
   22      H      -5.4094357367     1.6870246696    -1.1241128604
   23      H      -6.0488048576     0.2098891599     0.9651992625
 ----------------------------------------------------------------

    9   -1656.6613268025      5.03E-09 Convergence criterion met
 Total energy in the final basis set = -1656.6613268025
 Final energy is   -1656.66132680254
 **  OPTIMIZATION CONVERGED  **

                    Orbital Energies (a.u.)
 --------------------------------------------------------------

 Alpha MOs
 -- Occupied --
-88.921 -88.921 -88.921 -10.241 -10.240 -10.238 -10.238 -10.226
-10.226 -10.206 -10.206 -10.205 -10.205 -10.205 -10.205  -7.981
 -7.980  -7.980  -5.945  -5.944  -5.944  -5.941  -5.941  -5.941
 -5.938  -5.937  -5.937  -0.906  -0.892  -0.876  -0.786  -0.754
 -0.745  -0.743  -0.733  -0.697  -0.615  -0.594  -0.569  -0.562
 -0.537  -0.535  -0.527  -0.501  -0.462  -0.421  -0.420  -0.416
 -0.415  -0.407  -0.403  -0.399  -0.384  -0.376  -0.370  -0.358
 -0.351  -0.345  -0.283  -0.267  -0.262  -0.259  -0.247  -0.210

          Ground-State Mulliken Net Atomic Charges

     Atom                 Charge (a.u.)
  ----------------------------------------
      1 H                     0.196453
      2 H                     0.119037
      3 C                     0.036224
      4 C                    -0.409795
      5 S                    -0.127980
      6 C                     0.539392
      7 H                     0.127523
      8 C                    -0.378549
      9 H                     0.125573
     10 C                    -0.121133
     11 C                    -0.100315
     12 S                    -0.036912
     13 C                     0.090361
     14 H                     0.128022
     15 C                    -0.174655
     16 C                    -0.487981
     17 H                     0.139568
     18 C                     0.341369
     19 S                     0.062265
     20 C                    -0.393871
     21 C                     0.012467
     22 H                     0.119303
     23 H                     0.193634
  ----------------------------------------
  Sum of atomic charges =     0.000000

                    Cartesian Multipole Moments
 -----------------------------------------------------------------
    Charge (ESU x 10^10)
                 0.0000
    Dipole Moment (Debye)
         X      -0.0586      Y       0.3508      Z      -0.7194
       Tot       0.8025
    Quadrupole Moments (Debye-Ang)
        XX     -90.3123     XY      -0.0495     YY    -103.9721
        XZ       0.4429     YZ      -1.7409     ZZ    -112.8904

 Total job time:  130.38s(wall), 138.12s(cpu)
        *  Thank you very much for using Q-Chem.  Have a nice day.  *
