 Q-Chem 4.4, Q-Chem, Inc., Pleasanton, CA (2016)
 Q-Chem 4.4.2 for Intel X86 EM64T Linux

User input:
--------------------------------------------------------------
$molecule
 0  1
 H           6.23254100       -0.22338900        0.17638100
 H           5.29752400        2.22850500       -0.10953100
 C           5.19733500        0.07486000        0.08356300
 C           4.68347900        1.33634400       -0.06443600
 S           3.94559900       -1.12581000        0.11905200
 C           3.26267300        1.34659400       -0.16511200
 H           2.67740100        2.24810800       -0.30841700
 C           2.69562400        0.08941900       -0.09094600
 H           1.33241900       -2.39005500       -0.68762600
 C           1.29739300       -0.28590200       -0.16150800
 C           0.73808300       -1.51455700       -0.45078400
 S           0.03601800        0.89451200        0.14982500
 C          -0.68041100       -1.51067300       -0.44936800
 H          -1.28012400       -2.38277100       -0.68510300
 C          -1.23220500       -0.27900200       -0.15852500
 C          -2.62830100        0.10383400       -0.08465000
 H          -2.87725981        0.81309372        1.95065291
 C          -3.33322465        0.61657367        0.98665711
 S          -3.68219935       -0.05806267       -1.47971576
 C          -4.70023453        0.88647593        0.69093677
 C          -5.03501830        0.58190828       -0.60229630
 H          -5.40210200        1.29822835        1.40709577
 H          -5.99231172        0.69146344       -1.09301436
$end

$rem
         jobtype = opt
        exchange = b3lyp
           basis = 6-31++g**
  max_scf_cycles = 150
      mem_static = 281
       mem_total = 2818
      sym_ignore = true
        symmetry = false
          thresh = 12
$end

$opt
CONSTRAINT
tors 13 15 16 18 120.0
ENDCONSTRAINT
$end

--------------------------------------------------------------

   15   -1656.6617611012      8.78E-09 Convergence criterion met
 Total energy in the final basis set = -1656.6617611012
   12   -1656.6621018220      5.83E-09 Convergence criterion met
 Total energy in the final basis set = -1656.6621018220
   12   -1656.6621775309      4.03E-09 Convergence criterion met
 Total energy in the final basis set = -1656.6621775309
   12   -1656.6622099295      3.12E-09 Convergence criterion met
 Total energy in the final basis set = -1656.6622099295
   11   -1656.6622296287      9.83E-09 Convergence criterion met
 Total energy in the final basis set = -1656.6622296287
   11   -1656.6622365039      4.74E-09 Convergence criterion met
 Total energy in the final basis set = -1656.6622365039
    9   -1656.6622384020      9.52E-09 Convergence criterion met
 Total energy in the final basis set = -1656.6622384020

             Standard Nuclear Orientation (Angstroms)
    I     Atom           X                Y                Z
 ----------------------------------------------------------------
    1      H       6.2205074731    -0.2696361905     0.2867268264
    2      H       5.3336629792     2.1936833478    -0.0499410361
    3      C       5.1935002589     0.0436526737     0.1587708169
    4      C       4.7046576621     1.3114901949    -0.0166607367
    5      S       3.9223288582    -1.1367003418     0.1646833943
    6      C       3.2878284259     1.3424043101    -0.1633373583
    7      H       2.7213651666     2.2513514465    -0.3330986796
    8      C       2.6994374081     0.0955352920    -0.0957300384
    9      H       1.3213979624    -2.3653253008    -0.7267596971
   10      C       1.2961941741    -0.2585769300    -0.2082479976
   11      C       0.7311412526    -1.4808303021    -0.5139651536
   12      S       0.0427651300     0.9382175560     0.0561754339
   13      C      -0.6893171998    -1.4639239805    -0.5319286710
   14      H      -1.3015278179    -2.3357137375    -0.7335970626
   15      C      -1.2302865268    -0.2274588642    -0.2565282408
   16      C      -2.6333366020     0.1564190931    -0.1378868295
   17      H      -2.7884876765     0.9346412451     1.8740055354
   18      C      -3.2930369158     0.6976630478     0.9440308197
   19      S      -3.7579621310    -0.1347788370    -1.4525851969
   20      C      -4.6891352964     0.8845043654     0.7217558736
   21      C      -5.0882933776     0.4734106054    -0.5236590614
   22      H      -5.3682164670     1.2954344299     1.4601730632
   23      H      -6.0824891005     0.4942345967    -0.9492648639
 ----------------------------------------------------------------

    8   -1656.6622387047      6.44E-09 Convergence criterion met
 Total energy in the final basis set = -1656.6622387047
 Final energy is   -1656.66223870466
 **  OPTIMIZATION CONVERGED  **

                    Orbital Energies (a.u.)
 --------------------------------------------------------------

 Alpha MOs
 -- Occupied --
-88.921 -88.921 -88.921 -10.241 -10.240 -10.239 -10.238 -10.226
-10.226 -10.206 -10.206 -10.205 -10.205 -10.205 -10.205  -7.980
 -7.980  -7.980  -5.945  -5.944  -5.944  -5.941  -5.941  -5.941
 -5.938  -5.938  -5.937  -0.906  -0.892  -0.876  -0.786  -0.755
 -0.745  -0.744  -0.733  -0.697  -0.616  -0.595  -0.569  -0.561
 -0.537  -0.535  -0.528  -0.501  -0.462  -0.422  -0.420  -0.417
 -0.415  -0.407  -0.402  -0.401  -0.384  -0.376  -0.370  -0.359
 -0.351  -0.345  -0.287  -0.266  -0.262  -0.260  -0.246  -0.209

          Ground-State Mulliken Net Atomic Charges

     Atom                 Charge (a.u.)
  ----------------------------------------
      1 H                     0.196127
      2 H                     0.119328
      3 C                     0.035829
      4 C                    -0.412377
      5 S                    -0.114474
      6 C                     0.540941
      7 H                     0.127338
      8 C                    -0.458345
      9 H                     0.120727
     10 C                    -0.047237
     11 C                    -0.161685
     12 S                    -0.107056
     13 C                     0.164378
     14 H                     0.133408
     15 C                    -0.151013
     16 C                    -0.497339
     17 H                     0.142749
     18 C                     0.370786
     19 S                     0.016014
     20 C                    -0.367394
     21 C                     0.037109
     22 H                     0.118485
     23 H                     0.193701
  ----------------------------------------
  Sum of atomic charges =     0.000000

                    Cartesian Multipole Moments
 -----------------------------------------------------------------
    Charge (ESU x 10^10)
                 0.0000
    Dipole Moment (Debye)
         X      -0.0524      Y       0.1732      Z       0.3596
       Tot       0.4026
    Quadrupole Moments (Debye-Ang)
        XX     -90.2382     XY       0.2546     YY    -105.2874
        XZ      -0.5156     YZ       2.4565     ZZ    -111.8664

 Total job time:  130.24s(wall), 137.74s(cpu)
        *  Thank you very much for using Q-Chem.  Have a nice day.  *
