 Q-Chem 4.4, Q-Chem, Inc., Pleasanton, CA (2016)
 Q-Chem 4.4.2 for Intel X86 EM64T Linux

User input:
--------------------------------------------------------------
$molecule
 0  1
 H           6.23254100       -0.22338900        0.17638100
 H           5.29752400        2.22850500       -0.10953100
 C           5.19733500        0.07486000        0.08356300
 C           4.68347900        1.33634400       -0.06443600
 S           3.94559900       -1.12581000        0.11905200
 C           3.26267300        1.34659400       -0.16511200
 H           2.67740100        2.24810800       -0.30841700
 C           2.69562400        0.08941900       -0.09094600
 H           1.33241900       -2.39005500       -0.68762600
 C           1.29739300       -0.28590200       -0.16150800
 C           0.73808300       -1.51455700       -0.45078400
 S           0.03601800        0.89451200        0.14982500
 C          -0.68041100       -1.51067300       -0.44936800
 H          -1.28012400       -2.38277100       -0.68510300
 C          -1.23220500       -0.27900200       -0.15852500
 C          -2.62830100        0.10383400       -0.08465000
 H          -3.61744521       -1.22258602       -1.48810696
 C          -3.70797253       -0.40989952       -0.77595709
 S          -3.15517579        1.38686832        0.99207960
 C          -4.94551893        0.21019567       -0.43984013
 C          -4.80905670        1.19206208        0.50599802
 H          -5.89775391       -0.06864499       -0.87634688
 H          -5.57656450        1.81423442        0.94537327
$end

$rem
         jobtype = opt
        exchange = b3lyp
           basis = 6-31++g**
  max_scf_cycles = 150
      mem_static = 281
       mem_total = 2818
      sym_ignore = true
        symmetry = false
          thresh = 12
$end

$opt
CONSTRAINT
tors 13 15 16 18 -30.0
ENDCONSTRAINT
$end

--------------------------------------------------------------

   16   -1656.6627002503      2.63E-09 Convergence criterion met
 Total energy in the final basis set = -1656.6627002503
   11   -1656.6631035261      9.94E-09 Convergence criterion met
 Total energy in the final basis set = -1656.6631035261
   11   -1656.6631947584      8.63E-09 Convergence criterion met
 Total energy in the final basis set = -1656.6631947584
   11   -1656.6632148208      4.64E-09 Convergence criterion met
 Total energy in the final basis set = -1656.6632148208
   10   -1656.6632213038      8.90E-09 Convergence criterion met
 Total energy in the final basis set = -1656.6632213038
   10   -1656.6632237670      6.21E-09 Convergence criterion met
 Total energy in the final basis set = -1656.6632237670
   10   -1656.6632250915      5.56E-09 Convergence criterion met
 Total energy in the final basis set = -1656.6632250915

             Standard Nuclear Orientation (Angstroms)
    I     Atom           X                Y                Z
 ----------------------------------------------------------------
    1      H       6.2358966871    -0.2691452609     0.1596625087
    2      H       5.3342503940     2.1985235441    -0.0981868851
    3      C       5.2048535173     0.0443651477     0.0706494247
    4      C       4.7082663571     1.3142367938    -0.0636205044
    5      S       3.9366777096    -1.1392655782     0.0926844911
    6      C       3.2877151701     1.3448591316    -0.1650373489
    7      H       2.7150987339     2.2561742532    -0.2973652048
    8      C       2.7034870575     0.0952146255    -0.1042937728
    9      H       1.3069539781    -2.3693375217    -0.6848803995
   10      C       1.2994372693    -0.2597759353    -0.1785173781
   11      C       0.7238552573    -1.4829306536    -0.4605378911
   12      S       0.0540169947     0.9407630545     0.1150476986
   13      C      -0.6945953545    -1.4670340002    -0.4323968513
   14      H      -1.3092638404    -2.3438088039    -0.6004656485
   15      C      -1.2292400826    -0.2281190163    -0.1427155555
   16      C      -2.6322942908     0.1390975704    -0.0667717205
   17      H      -3.5510810199    -1.1833351272    -1.5159640493
   18      C      -3.6870332035    -0.4110951331    -0.7675476586
   19      S      -3.2134582381     1.3899167701     1.0193756732
   20      C      -4.9482774748     0.1632293771    -0.4377277460
   21      C      -4.8520076214     1.1555634018     0.5028507342
   22      H      -5.8856459108    -0.1387691424    -0.8909091434
   23      H      -5.6420516593     1.7629194629     0.9226820572
 ----------------------------------------------------------------

   10   -1656.6632259478      5.79E-09 Convergence criterion met
 Total energy in the final basis set = -1656.6632259478
 Final energy is   -1656.66322594775
 **  OPTIMIZATION CONVERGED  **

                    Orbital Energies (a.u.)
 --------------------------------------------------------------

 Alpha MOs
 -- Occupied --
-88.921 -88.921 -88.921 -10.241 -10.241 -10.240 -10.240 -10.226
-10.226 -10.206 -10.206 -10.206 -10.206 -10.205 -10.205  -7.981
 -7.981  -7.980  -5.945  -5.945  -5.944  -5.941  -5.941  -5.941
 -5.938  -5.938  -5.937  -0.907  -0.892  -0.876  -0.787  -0.756
 -0.745  -0.744  -0.734  -0.697  -0.617  -0.596  -0.569  -0.564
 -0.537  -0.533  -0.529  -0.499  -0.463  -0.423  -0.420  -0.418
 -0.415  -0.408  -0.403  -0.398  -0.386  -0.376  -0.370  -0.361
 -0.352  -0.343  -0.294  -0.267  -0.263  -0.260  -0.248  -0.202

          Ground-State Mulliken Net Atomic Charges

     Atom                 Charge (a.u.)
  ----------------------------------------
      1 H                     0.197146
      2 H                     0.119835
      3 C                     0.035776
      4 C                    -0.350216
      5 S                    -0.122996
      6 C                     0.529478
      7 H                     0.127775
      8 C                    -0.471949
      9 H                     0.122407
     10 C                    -0.074055
     11 C                    -0.117167
     12 S                    -0.240628
     13 C                     0.191042
     14 H                     0.129571
     15 C                    -0.191419
     16 C                    -0.313855
     17 H                     0.136773
     18 C                     0.366623
     19 S                    -0.030178
     20 C                    -0.388715
     21 C                     0.029715
     22 H                     0.119467
     23 H                     0.195570
  ----------------------------------------
  Sum of atomic charges =     0.000000

                    Cartesian Multipole Moments
 -----------------------------------------------------------------
    Charge (ESU x 10^10)
                 0.0000
    Dipole Moment (Debye)
         X      -0.2438      Y      -0.2871      Z      -0.5469
       Tot       0.6641
    Quadrupole Moments (Debye-Ang)
        XX     -89.2880     XY       1.6039     YY    -103.2367
        XZ       1.4043     YZ       3.4201     ZZ    -113.8864

 Total job time:  130.38s(wall), 139.08s(cpu)
        *  Thank you very much for using Q-Chem.  Have a nice day.  *
