 Q-Chem 4.4, Q-Chem, Inc., Pleasanton, CA (2016)
 Q-Chem 4.4.2 for Intel X86 EM64T Linux

User input:
--------------------------------------------------------------
$molecule
 0  1
 H           6.23254100       -0.22338900        0.17638100
 H           5.29752400        2.22850500       -0.10953100
 C           5.19733500        0.07486000        0.08356300
 C           4.68347900        1.33634400       -0.06443600
 S           3.94559900       -1.12581000        0.11905200
 C           3.26267300        1.34659400       -0.16511200
 H           2.67740100        2.24810800       -0.30841700
 C           2.69562400        0.08941900       -0.09094600
 H           1.33241900       -2.39005500       -0.68762600
 C           1.29739300       -0.28590200       -0.16150800
 C           0.73808300       -1.51455700       -0.45078400
 S           0.03601800        0.89451200        0.14982500
 C          -0.68041100       -1.51067300       -0.44936800
 H          -1.28012400       -2.38277100       -0.68510300
 C          -1.23220500       -0.27900200       -0.15852500
 C          -2.62830100        0.10383400       -0.08465000
 H          -3.31083542        0.02181862       -2.14253922
 C          -3.55065136        0.22734122       -1.10520574
 S          -3.37574258        0.49304076        1.45579472
 C          -4.84476107        0.61964299       -0.65755281
 C          -4.90831249        0.79264101        0.70013872
 H          -5.69429940        0.75821920       -1.31643290
 H          -5.75911148        1.07959423        1.30264697
$end

$rem
         jobtype = opt
        exchange = b3lyp
           basis = 6-31++g**
  max_scf_cycles = 150
      mem_static = 281
       mem_total = 2818
      sym_ignore = true
        symmetry = false
          thresh = 12
$end

$opt
CONSTRAINT
tors 13 15 16 18 -70.0
ENDCONSTRAINT
$end

--------------------------------------------------------------

   15   -1656.6605964353      5.78E-09 Convergence criterion met
 Total energy in the final basis set = -1656.6605964353
   12   -1656.6609653310      5.23E-09 Convergence criterion met
 Total energy in the final basis set = -1656.6609653310
   11   -1656.6610218680      6.03E-09 Convergence criterion met
 Total energy in the final basis set = -1656.6610218680
   10   -1656.6610354719      6.83E-09 Convergence criterion met
 Total energy in the final basis set = -1656.6610354719
   10   -1656.6610409100      6.16E-09 Convergence criterion met
 Total energy in the final basis set = -1656.6610409100
   10   -1656.6610427259      4.90E-09 Convergence criterion met
 Total energy in the final basis set = -1656.6610427259

             Standard Nuclear Orientation (Angstroms)
    I     Atom           X                Y                Z
 ----------------------------------------------------------------
    1      H       6.2343141250    -0.2396267297     0.1988970831
    2      H       5.3153282132     2.2190505468    -0.0813865197
    3      C       5.2015733150     0.0648895782     0.0988985994
    4      C       4.6961853585     1.3299706043    -0.0466324396
    5      S       3.9429143230    -1.1285467662     0.1171534139
    6      C       3.2760118909     1.3482969047    -0.1594323121
    7      H       2.6966584548     2.2537721670    -0.3019325981
    8      C       2.7020596097     0.0946254165    -0.0962470726
    9      H       1.3354535964    -2.3730356097    -0.7240935745
   10      C       1.2998069895    -0.2727653890    -0.1806345879
   11      C       0.7412562112    -1.4972367989    -0.4877344172
   12      S       0.0418456865     0.9083971861     0.1261960898
   13      C      -0.6802173112    -1.4925721243    -0.4770594478
   14      H      -1.2906088604    -2.3658549940    -0.6771928158
   15      C      -1.2273317470    -0.2644924829    -0.1828857655
   16      C      -2.6416204292     0.0955453684    -0.0802887610
   17      H      -3.3188096379    -0.0160417351    -2.1278596390
   18      C      -3.5698664966     0.1869564748    -1.0929313083
   19      S      -3.3730224520     0.5299353460     1.4556173065
   20      C      -4.8647695275     0.5838120293    -0.6442132242
   21      C      -4.9099530374     0.8102316067     0.7067586609
   22      H      -5.7207055712     0.7045145882    -1.2984803163
   23      H      -5.7551685032     1.1224898429     1.3051483861
 ----------------------------------------------------------------

   10   -1656.6610433972      3.54E-09 Convergence criterion met
 Total energy in the final basis set = -1656.6610433972
 Final energy is   -1656.66104339721
 **  OPTIMIZATION CONVERGED  **

                    Orbital Energies (a.u.)
 --------------------------------------------------------------

 Alpha MOs
 -- Occupied --
-88.921 -88.921 -88.920 -10.241 -10.240 -10.238 -10.237 -10.226
-10.226 -10.206 -10.206 -10.205 -10.205 -10.205 -10.205  -7.980
 -7.980  -7.980  -5.945  -5.944  -5.944  -5.941  -5.940  -5.940
 -5.938  -5.937  -5.937  -0.905  -0.891  -0.876  -0.785  -0.754
 -0.745  -0.743  -0.733  -0.697  -0.615  -0.593  -0.568  -0.564
 -0.537  -0.534  -0.527  -0.499  -0.463  -0.422  -0.418  -0.417
 -0.415  -0.407  -0.403  -0.399  -0.383  -0.376  -0.370  -0.358
 -0.352  -0.345  -0.283  -0.267  -0.262  -0.259  -0.245  -0.211

          Ground-State Mulliken Net Atomic Charges

     Atom                 Charge (a.u.)
  ----------------------------------------
      1 H                     0.196591
      2 H                     0.119532
      3 C                     0.032275
      4 C                    -0.398905
      5 S                    -0.118724
      6 C                     0.518290
      7 H                     0.126168
      8 C                    -0.450547
      9 H                     0.123141
     10 C                    -0.007889
     11 C                    -0.160739
     12 S                    -0.094793
     13 C                     0.186735
     14 H                     0.130960
     15 C                    -0.317223
     16 C                    -0.412015
     17 H                     0.144187
     18 C                     0.389039
     19 S                     0.038953
     20 C                    -0.382575
     21 C                     0.020581
     22 H                     0.120990
     23 H                     0.195968
  ----------------------------------------
  Sum of atomic charges =     0.000000

                    Cartesian Multipole Moments
 -----------------------------------------------------------------
    Charge (ESU x 10^10)
                 0.0000
    Dipole Moment (Debye)
         X      -0.1501      Y       0.0396      Z      -0.6932
       Tot       0.7103
    Quadrupole Moments (Debye-Ang)
        XX     -89.8832     XY       0.1516     YY    -105.5455
        XZ       1.4701     YZ       1.5766     ZZ    -111.0515

 Total job time:  113.54s(wall), 120.24s(cpu)
        *  Thank you very much for using Q-Chem.  Have a nice day.  *
