 Q-Chem 4.4, Q-Chem, Inc., Pleasanton, CA (2016)
 Q-Chem 4.4.2 for Intel X86 EM64T Linux

User input:
--------------------------------------------------------------
$molecule
 0  1
 H           6.23254100       -0.22338900        0.17638100
 H           5.29752400        2.22850500       -0.10953100
 C           5.19733500        0.07486000        0.08356300
 C           4.68347900        1.33634400       -0.06443600
 S           3.94559900       -1.12581000        0.11905200
 C           3.26267300        1.34659400       -0.16511200
 H           2.67740100        2.24810800       -0.30841700
 C           2.69562400        0.08941900       -0.09094600
 H           1.33241900       -2.39005500       -0.68762600
 C           1.29739300       -0.28590200       -0.16150800
 C           0.73808300       -1.51455700       -0.45078400
 S           0.03601800        0.89451200        0.14982500
 C          -0.68041100       -1.51067300       -0.44936800
 H          -1.28012400       -2.38277100       -0.68510300
 C          -1.23220500       -0.27900200       -0.15852500
 C          -2.62830100        0.10383400       -0.08465000
 H          -3.06456864        0.11265602        2.04069245
 C          -3.42902151        0.25887568        1.02994723
 S          -3.54779057        0.44398103       -1.54134478
 C          -4.76191404        0.65561053        0.72170590
 C          -4.97522522        0.80406113       -0.62356513
 H          -5.52667029        0.83193298        1.46943579
 H          -5.88233248        1.10009406       -1.13222827
$end

$rem
         jobtype = opt
        exchange = b3lyp
           basis = 6-31++g**
  max_scf_cycles = 150
      mem_static = 281
       mem_total = 2818
      sym_ignore = true
        symmetry = false
          thresh = 12
$end

$opt
CONSTRAINT
tors 13 15 16 18 100.0
ENDCONSTRAINT
$end

--------------------------------------------------------------

   15   -1656.6601489233      4.58E-09 Convergence criterion met
 Total energy in the final basis set = -1656.6601489233
   12   -1656.6604939734      4.04E-09 Convergence criterion met
 Total energy in the final basis set = -1656.6604939734
   11   -1656.6605277014      9.74E-09 Convergence criterion met
 Total energy in the final basis set = -1656.6605277014
   11   -1656.6605359580      5.07E-09 Convergence criterion met
 Total energy in the final basis set = -1656.6605359580
   11   -1656.6605419222      6.15E-09 Convergence criterion met
 Total energy in the final basis set = -1656.6605419222
   11   -1656.6605450731      4.20E-09 Convergence criterion met
 Total energy in the final basis set = -1656.6605450731
   10   -1656.6605471233      9.29E-09 Convergence criterion met
 Total energy in the final basis set = -1656.6605471233

             Standard Nuclear Orientation (Angstroms)
    I     Atom           X                Y                Z
 ----------------------------------------------------------------
    1      H       6.2271042965    -0.2582826448     0.2612621143
    2      H       5.3308249404     2.2005239531    -0.0832141345
    3      C       5.1982357980     0.0513822781     0.1395203253
    4      C       4.7045742912     1.3168205314    -0.0396692677
    5      S       3.9304820115    -1.1322584918     0.1628374104
    6      C       3.2864449759     1.3429242716    -0.1748780566
    7      H       2.7158048412     2.2491740357    -0.3449716722
    8      C       2.7023719428     0.0949829287    -0.0949520313
    9      H       1.3274463744    -2.3700843004    -0.7145864402
   10      C       1.2985164165    -0.2638618556    -0.1932333288
   11      C       0.7359677933    -1.4887816817    -0.4922283110
   12      S       0.0442961894     0.9260267413     0.0893815073
   13      C      -0.6856092895    -1.4753747123    -0.4988821577
   14      H      -1.2981039854    -2.3448651428    -0.7094002605
   15      C      -1.2283873552    -0.2437365002    -0.2144980078
   16      C      -2.6396493622     0.1381423324    -0.1106213298
   17      H      -2.9953160828     0.1743047793     2.0189861536
   18      C      -3.4024750432     0.3044759501     1.0225761065
   19      S      -3.6150301279     0.4088160428    -1.5447784402
   20      C      -4.7596561574     0.6494757013     0.7497087440
   21      C      -5.0228580596     0.7402753389    -0.5925646426
   22      H      -5.5065957028     0.8177225587     1.5171508509
   23      H      -5.9608634552     0.9794263159    -1.0754869415
 ----------------------------------------------------------------

    9   -1656.6605477074      6.91E-09 Convergence criterion met
 Total energy in the final basis set = -1656.6605477074
 Final energy is   -1656.66054770739
 **  OPTIMIZATION CONVERGED  **

                    Orbital Energies (a.u.)
 --------------------------------------------------------------

 Alpha MOs
 -- Occupied --
-88.921 -88.921 -88.921 -10.241 -10.240 -10.238 -10.237 -10.226
-10.226 -10.206 -10.206 -10.205 -10.205 -10.205 -10.204  -7.981
 -7.980  -7.980  -5.945  -5.944  -5.944  -5.941  -5.940  -5.940
 -5.938  -5.937  -5.937  -0.905  -0.891  -0.876  -0.785  -0.753
 -0.745  -0.743  -0.733  -0.697  -0.615  -0.593  -0.568  -0.562
 -0.537  -0.534  -0.527  -0.500  -0.462  -0.421  -0.419  -0.416
 -0.415  -0.406  -0.402  -0.401  -0.383  -0.375  -0.370  -0.358
 -0.351  -0.345  -0.281  -0.267  -0.262  -0.258  -0.244  -0.213

          Ground-State Mulliken Net Atomic Charges

     Atom                 Charge (a.u.)
  ----------------------------------------
      1 H                     0.196133
      2 H                     0.119051
      3 C                     0.033840
      4 C                    -0.419499
      5 S                    -0.121736
      6 C                     0.566894
      7 H                     0.129251
      8 C                    -0.465261
      9 H                     0.124480
     10 C                    -0.063497
     11 C                    -0.081621
     12 S                    -0.069146
     13 C                     0.159806
     14 H                     0.127774
     15 C                    -0.252260
     16 C                    -0.573228
     17 H                     0.144028
     18 C                     0.462968
     19 S                     0.039251
     20 C                    -0.422650
     21 C                     0.052264
     22 H                     0.118670
     23 H                     0.194489
  ----------------------------------------
  Sum of atomic charges =     0.000000

                    Cartesian Multipole Moments
 -----------------------------------------------------------------
    Charge (ESU x 10^10)
                 0.0000
    Dipole Moment (Debye)
         X      -0.0771      Y       0.0288      Z       0.3426
       Tot       0.3524
    Quadrupole Moments (Debye-Ang)
        XX     -90.1660     XY       0.2178     YY    -105.7266
        XZ      -0.9455     YZ       0.6285     ZZ    -111.1736

 Total job time:  130.40s(wall), 138.00s(cpu)
        *  Thank you very much for using Q-Chem.  Have a nice day.  *
