 Q-Chem 4.4, Q-Chem, Inc., Pleasanton, CA (2016)
 Q-Chem 4.4.2 for Intel X86 EM64T Linux

User input:
--------------------------------------------------------------
$molecule
 0  1
 H           6.23254100       -0.22338900        0.17638100
 H           5.29752400        2.22850500       -0.10953100
 C           5.19733500        0.07486000        0.08356300
 C           4.68347900        1.33634400       -0.06443600
 S           3.94559900       -1.12581000        0.11905200
 C           3.26267300        1.34659400       -0.16511200
 H           2.67740100        2.24810800       -0.30841700
 C           2.69562400        0.08941900       -0.09094600
 H           1.33241900       -2.39005500       -0.68762600
 C           1.29739300       -0.28590200       -0.16150800
 C           0.73808300       -1.51455700       -0.45078400
 S           0.03601800        0.89451200        0.14982500
 C          -0.68041100       -1.51067300       -0.44936800
 H          -1.28012400       -2.38277100       -0.68510300
 C          -1.23220500       -0.27900200       -0.15852500
 C          -2.62830100        0.10383400       -0.08465000
 H          -3.01822359        1.06000493       -1.99283902
 C          -3.40129017        0.75651727       -1.02486834
 S          -3.58539945       -0.25000337        1.34429451
 C          -4.74828767        0.96223773       -0.60978934
 C          -5.00093078        0.46608237        0.64212707
 H          -5.49944021        1.45025436       -1.22024111
 H          -5.92947702        0.47888419        1.19607224
$end

$rem
         jobtype = opt
        exchange = b3lyp
           basis = 6-31++g**
  max_scf_cycles = 150
      mem_static = 281
       mem_total = 2818
      sym_ignore = true
        symmetry = false
          thresh = 12
$end

$opt
CONSTRAINT
tors 13 15 16 18 -100.0
ENDCONSTRAINT
$end

--------------------------------------------------------------

   15   -1656.6602341629      9.09E-09 Convergence criterion met
 Total energy in the final basis set = -1656.6602341629
   11   -1656.6605166414      5.61E-09 Convergence criterion met
 Total energy in the final basis set = -1656.6605166414
   11   -1656.6605465440      5.23E-09 Convergence criterion met
 Total energy in the final basis set = -1656.6605465440
   11   -1656.6605574777      5.25E-09 Convergence criterion met
 Total energy in the final basis set = -1656.6605574777
   11   -1656.6605670590      8.35E-09 Convergence criterion met
 Total energy in the final basis set = -1656.6605670590
   10   -1656.6605697840      6.83E-09 Convergence criterion met
 Total energy in the final basis set = -1656.6605697840
   10   -1656.6605709514      5.28E-09 Convergence criterion met
 Total energy in the final basis set = -1656.6605709514

             Standard Nuclear Orientation (Angstroms)
    I     Atom           X                Y                Z
 ----------------------------------------------------------------
    1      H       6.2381007865    -0.2350941977     0.1657126135
    2      H       5.3148554201     2.2181572984    -0.1466249388
    3      C       5.2041061874     0.0674573348     0.0729804313
    4      C       4.6964959828     1.3297413249    -0.0884681406
    5      S       3.9460843312    -1.1255328777     0.1279900785
    6      C       3.2749992037     1.3459633378    -0.1834588411
    7      H       2.6934499644     2.2487538244    -0.3338512441
    8      C       2.7024058649     0.0934389309    -0.0917342462
    9      H       1.3311240885    -2.3800220198    -0.6830534200
   10      C       1.2993570748    -0.2761299513    -0.1526968261
   11      C       0.7387635295    -1.5048126975    -0.4399986961
   12      S       0.0434606541     0.9040758972     0.1615001743
   13      C      -0.6826266549    -1.4994917383    -0.4228860281
   14      H      -1.2936711384    -2.3682807725    -0.6403920230
   15      C      -1.2274374685    -0.2728253442    -0.1211691639
   16      C      -2.6391087840     0.1161416864    -0.0590444636
   17      H      -2.9707008254     1.1240179441    -1.9402813917
   18      C      -3.3899193068     0.7823560088    -1.0005465403
   19      S      -3.6329660356    -0.3016934576     1.3258388988
   20      C      -4.7525014989     0.9626661347    -0.6182742034
   21      C      -5.0324686436     0.4268424374     0.6121604344
   22      H      -5.4918708042     1.4623768311    -1.2337565843
   23      H      -5.9779328178     0.4158885457     1.1376251305
 ----------------------------------------------------------------

    9   -1656.6605713024      4.91E-09 Convergence criterion met
 Total energy in the final basis set = -1656.6605713024
 Final energy is   -1656.66057130241
 **  OPTIMIZATION CONVERGED  **

                    Orbital Energies (a.u.)
 --------------------------------------------------------------

 Alpha MOs
 -- Occupied --
-88.921 -88.921 -88.921 -10.241 -10.240 -10.238 -10.237 -10.226
-10.226 -10.206 -10.206 -10.205 -10.205 -10.205 -10.204  -7.981
 -7.980  -7.980  -5.945  -5.944  -5.944  -5.941  -5.940  -5.940
 -5.938  -5.937  -5.937  -0.905  -0.891  -0.876  -0.785  -0.754
 -0.745  -0.743  -0.733  -0.697  -0.615  -0.593  -0.569  -0.562
 -0.537  -0.534  -0.527  -0.500  -0.462  -0.421  -0.419  -0.416
 -0.416  -0.406  -0.404  -0.399  -0.384  -0.375  -0.370  -0.358
 -0.351  -0.345  -0.281  -0.267  -0.262  -0.258  -0.246  -0.213

          Ground-State Mulliken Net Atomic Charges

     Atom                 Charge (a.u.)
  ----------------------------------------
      1 H                     0.196535
      2 H                     0.119207
      3 C                     0.035281
      4 C                    -0.403483
      5 S                    -0.129918
      6 C                     0.540576
      7 H                     0.127247
      8 C                    -0.401067
      9 H                     0.125375
     10 C                    -0.082224
     11 C                    -0.113089
     12 S                    -0.032477
     13 C                     0.134670
     14 H                     0.125532
     15 C                    -0.264343
     16 C                    -0.502363
     17 H                     0.137235
     18 C                     0.369040
     19 S                     0.066707
     20 C                    -0.371026
     21 C                     0.007466
     22 H                     0.120871
     23 H                     0.194247
  ----------------------------------------
  Sum of atomic charges =     0.000000

                    Cartesian Multipole Moments
 -----------------------------------------------------------------
    Charge (ESU x 10^10)
                 0.0000
    Dipole Moment (Debye)
         X      -0.0743      Y       0.2773      Z      -0.7276
       Tot       0.7822
    Quadrupole Moments (Debye-Ang)
        XX     -90.2268     XY      -0.1555     YY    -104.7885
        XZ       0.6586     YZ      -1.2289     ZZ    -111.9185

 Total job time:  128.47s(wall), 135.92s(cpu)
        *  Thank you very much for using Q-Chem.  Have a nice day.  *
