 Q-Chem 4.4, Q-Chem, Inc., Pleasanton, CA (2016)
 Q-Chem 4.4.2 for Intel X86 EM64T Linux

User input:
--------------------------------------------------------------
$molecule
 0  1
 H           6.23254100       -0.22338900        0.17638100
 H           5.29752400        2.22850500       -0.10953100
 C           5.19733500        0.07486000        0.08356300
 C           4.68347900        1.33634400       -0.06443600
 S           3.94559900       -1.12581000        0.11905200
 C           3.26267300        1.34659400       -0.16511200
 H           2.67740100        2.24810800       -0.30841700
 C           2.69562400        0.08941900       -0.09094600
 H           1.33241900       -2.39005500       -0.68762600
 C           1.29739300       -0.28590200       -0.16150800
 C           0.73808300       -1.51455700       -0.45078400
 S           0.03601800        0.89451200        0.14982500
 C          -0.68041100       -1.51067300       -0.44936800
 H          -1.28012400       -2.38277100       -0.68510300
 C          -1.23220500       -0.27900200       -0.15852500
 C          -2.62830100        0.10383400       -0.08465000
 H          -2.75812749        1.87955268       -1.32459195
 C          -3.26906386        1.17230280       -0.68073357
 S          -3.77117802       -0.83446046        0.86221660
 C          -4.66231652        1.23347353       -0.39070096
 C          -5.08180132        0.21357125        0.42239513
 H          -5.32575507        1.99828557       -0.77793931
 H          -6.07825169        0.01431881        0.79199273
$end

$rem
         jobtype = opt
        exchange = b3lyp
           basis = 6-31++g**
  max_scf_cycles = 150
      mem_static = 281
       mem_total = 2818
      sym_ignore = true
        symmetry = false
          thresh = 12
$end

$opt
CONSTRAINT
tors 13 15 16 18 -130.0
ENDCONSTRAINT
$end

--------------------------------------------------------------

   15   -1656.6629551261      7.57E-09 Convergence criterion met
 Total energy in the final basis set = -1656.6629551261
   11   -1656.6630769036      8.68E-09 Convergence criterion met
 Total energy in the final basis set = -1656.6630769036
   12   -1656.6631406409      4.42E-09 Convergence criterion met
 Total energy in the final basis set = -1656.6631406409
   11   -1656.6631673444      9.16E-09 Convergence criterion met
 Total energy in the final basis set = -1656.6631673444
   11   -1656.6631786396      5.17E-09 Convergence criterion met
 Total energy in the final basis set = -1656.6631786396

             Standard Nuclear Orientation (Angstroms)
    I     Atom           X                Y                Z
 ----------------------------------------------------------------
    1      H       6.2377401542    -0.2230111689     0.1139838806
    2      H       5.2991964670     2.2284987708    -0.1649444155
    3      C       5.2012206772     0.0756834131     0.0386890968
    4      C       4.6856452786     1.3368529265    -0.1052437512
    5      S       3.9493489946    -1.1237061348     0.1020044321
    6      C       3.2630120957     1.3475479567    -0.1799079005
    7      H       2.6758062760     2.2491050804    -0.3149232264
    8      C       2.6968893329     0.0913910192    -0.0906691932
    9      H       1.3254860301    -2.3872608447    -0.6631764904
   10      C       1.2960505708    -0.2833858417    -0.1343664134
   11      C       0.7338834196    -1.5137249622    -0.4124066897
   12      S       0.0396584722     0.8942238097     0.1982131726
   13      C      -0.6858671038    -1.5115208325    -0.3864102130
   14      H      -1.2947221948    -2.3784328822    -0.6170242679
   15      C      -1.2303524870    -0.2830032545    -0.0788483154
   16      C      -2.6298391478     0.1147361098    -0.0301197491
   17      H      -2.6943906126     1.9377443069    -1.1950813678
   18      C      -3.2417853132     1.2035588318    -0.6148009019
   19      S      -3.8162120988    -0.8815951096     0.7924442645
   20      C      -4.6511594988     1.2417528082    -0.4039025945
   21      C      -5.1082451010     0.1776576804     0.3295066897
   22      H      -5.2984970175     2.0195865188    -0.7927573200
   23      H      -6.1243131635    -0.0456370214     0.6251949437
 ----------------------------------------------------------------

    9   -1656.6631799402      8.48E-09 Convergence criterion met
 Total energy in the final basis set = -1656.6631799402
 Final energy is   -1656.66317994024
 **  OPTIMIZATION CONVERGED  **

                    Orbital Energies (a.u.)
 --------------------------------------------------------------

 Alpha MOs
 -- Occupied --
-88.922 -88.921 -88.921 -10.241 -10.240 -10.240 -10.239 -10.226
-10.226 -10.206 -10.206 -10.206 -10.205 -10.205 -10.205  -7.981
 -7.981  -7.981  -5.945  -5.945  -5.945  -5.941  -5.941  -5.941
 -5.938  -5.938  -5.938  -0.907  -0.892  -0.876  -0.787  -0.755
 -0.745  -0.744  -0.733  -0.697  -0.617  -0.596  -0.570  -0.561
 -0.537  -0.535  -0.528  -0.501  -0.462  -0.422  -0.421  -0.417
 -0.415  -0.407  -0.403  -0.399  -0.386  -0.377  -0.370  -0.360
 -0.351  -0.344  -0.288  -0.266  -0.263  -0.261  -0.249  -0.205

          Ground-State Mulliken Net Atomic Charges

     Atom                 Charge (a.u.)
  ----------------------------------------
      1 H                     0.195797
      2 H                     0.119350
      3 C                     0.021487
      4 C                    -0.377352
      5 S                    -0.107728
      6 C                     0.461133
      7 H                     0.124543
      8 C                    -0.308653
      9 H                     0.124941
     10 C                    -0.198988
     11 C                    -0.058188
     12 S                    -0.108685
     13 C                     0.125353
     14 H                     0.133930
     15 C                    -0.218922
     16 C                    -0.334790
     17 H                     0.141827
     18 C                     0.368365
     19 S                     0.016469
     20 C                    -0.462641
     21 C                     0.032939
     22 H                     0.116727
     23 H                     0.193085
  ----------------------------------------
  Sum of atomic charges =     0.000000

                    Cartesian Multipole Moments
 -----------------------------------------------------------------
    Charge (ESU x 10^10)
                 0.0000
    Dipole Moment (Debye)
         X      -0.0339      Y       0.4690      Z      -0.6226
       Tot       0.7803
    Quadrupole Moments (Debye-Ang)
        XX     -90.4127     XY       0.0709     YY    -102.2993
        XZ       0.2469     YZ      -1.5913     ZZ    -114.7946

 Total job time:  99.49s(wall), 105.42s(cpu)
        *  Thank you very much for using Q-Chem.  Have a nice day.  *
