 Q-Chem 4.4, Q-Chem, Inc., Pleasanton, CA (2016)
 Q-Chem 4.4.1 for Intel X86 EM64T Linux

User input:
--------------------------------------------------------------
$molecule
 1  2
 S           1.81042700       -1.22909900       -0.13996800
 C           3.10211600       -0.18861200       -0.13982200
 C           2.74845300        1.15163900       -0.14006900
 C           1.39169900        1.31613900       -0.14029100
 C           0.68906700        0.11310500       -0.14015500
 H           0.90454800        2.27578700       -0.14040700
 C          -0.68906700       -0.11310500       -0.14015500
 S          -1.40964138       -1.21259804       -1.29377863
 C          -1.67732078        0.42394802        0.68198311
 C          -2.91890983       -0.92753075       -0.66774422
 C          -2.93242058       -0.03085750        0.38920652
 H          -3.83236669        0.25569474        0.89928701
 H           4.10439600       -0.57731800       -0.13934700
 H           3.47107900        1.94537000       -0.13983300
 H          -3.77596846       -1.42355356       -1.08615748
 H          -1.46316463        1.12746032        1.46776170
$end

$rem
         jobtype = opt
        exchange = hf
           basis = cc-pvtz
  max_scf_cycles = 100
      mem_static = 6200
       mem_total = 62000
          method = mp2
$end

$opt
CONSTRAINT
tors 4 5 7 9 -50.0
ENDCONSTRAINT
$end

--------------------------------------------------------------

   25   -1101.3479642443      3.73E-09 Convergence criterion met
 Total energy in the final basis set = -1101.3479642443
        MP2         total energy =     -1103.0968643894 au
   16   -1101.3510448173      5.27E-09 Convergence criterion met
 Total energy in the final basis set = -1101.3510448173
        MP2         total energy =     -1103.0994101064 au
   16   -1101.3535041310      5.62E-09 Convergence criterion met
 Total energy in the final basis set = -1101.3535041310
        MP2         total energy =     -1103.1005719326 au
   16   -1101.3558209270      8.93E-09 Convergence criterion met
 Total energy in the final basis set = -1101.3558209270
        MP2         total energy =     -1103.1011262997 au
   16   -1101.3568397412      4.39E-09 Convergence criterion met
 Total energy in the final basis set = -1101.3568397412
        MP2         total energy =     -1103.1012851914 au
   14   -1101.3571514470      7.05E-09 Convergence criterion met
 Total energy in the final basis set = -1101.3571514470
        MP2         total energy =     -1103.1013176702 au
    9   -1101.3571424563      6.53E-09 Convergence criterion met
 Total energy in the final basis set = -1101.3571424563
        MP2         total energy =     -1103.1013198139 au

             Standard Nuclear Orientation (Angstroms)
    I     Atom           X                Y                Z
 ----------------------------------------------------------------
    1      S       1.5997488695     0.3667530069     1.1117860059
    2      C       3.0332270568     0.0085194176     0.3513867421
    3      C       2.8879354869    -0.3947307845    -0.9627325750
    4      C       1.5767052541    -0.3840731467    -1.3515621267
    5      C       0.7027181312     0.0374653872    -0.3490669005
    6      H       1.2315987041    -0.6877154764    -2.3242357160
    7      C      -0.7027181312    -0.0374653872    -0.3490669005
    8      S      -1.5997488695    -0.3667530069     1.1117860059
    9      C      -1.5767052541     0.3840731467    -1.3515621267
   10      C      -3.0332270568    -0.0085194176     0.3513867421
   11      C      -2.8879354869     0.3947307845    -0.9627325750
   12      H      -3.7160505072     0.6892294959    -1.5788121405
   13      H       3.9633229137     0.1211801966     0.8787121072
   14      H       3.7160505072    -0.6892294959    -1.5788121405
   15      H      -3.9633229137    -0.1211801966     0.8787121072
   16      H      -1.2315987041     0.6877154764    -2.3242357160
 ----------------------------------------------------------------

    8   -1101.3571414103      6.75E-09 Convergence criterion met
 Total energy in the final basis set = -1101.3571414103
        MP2         total energy =     -1103.1013192168 au
 Final energy is   -1103.10131921679
 **  OPTIMIZATION CONVERGED  **

             Orbital Energies (a.u.) and Symmetries
 --------------------------------------------------------------

 Alpha MOs, Unrestricted
 -- Occupied --
-92.160 -92.160 -11.477 -11.476 -11.451 -11.451 -11.435 -11.435
  1 A     1 B     2 A     2 B     3 B     3 A     4 B     4 A
-11.402 -11.402  -9.162  -9.162  -6.843  -6.843  -6.843  -6.843
  5 A     5 B     6 B     6 A     7 B     7 A     8 A     8 B
 -6.840  -6.840  -1.395  -1.364  -1.231  -1.191  -1.183  -1.129
  9 A     9 B    10 A    10 B    11 A    12 A    11 B    12 B
 -1.000  -0.959  -0.928  -0.905  -0.890  -0.822  -0.753  -0.753
 13 A    14 A    13 B    14 B    15 A    15 B    16 B    16 A
 -0.748  -0.736  -0.730  -0.710  -0.692  -0.667  -0.646  -0.577
 17 A    17 B    18 A    19 A    18 B    20 A    19 B    20 B
 -0.536  -0.521  -0.482
 21 A    21 B    22 A

 Beta MOs, Unrestricted
 -- Occupied --
-92.162 -92.162 -11.477 -11.476 -11.439 -11.439 -11.427 -11.427
  1 A     1 B     2 A     2 B     3 B     3 A     4 B     4 A
-11.409 -11.409  -9.164  -9.164  -6.845  -6.845  -6.844  -6.844
  5 B     5 A     6 B     6 A     7 B     7 A     8 B     8 A
 -6.844  -6.844  -1.383  -1.349  -1.221  -1.186  -1.174  -1.106
  9 B     9 A    10 A    10 B    11 A    12 A    11 B    12 B
 -0.991  -0.951  -0.917  -0.900  -0.887  -0.819  -0.751  -0.742
 13 A    14 A    13 B    14 B    15 A    15 B    16 A    17 A
 -0.736  -0.727  -0.722  -0.681  -0.668  -0.661  -0.645  -0.537
 16 B    18 A    17 B    18 B    19 A    20 A    19 B    20 B
 -0.535  -0.510
 21 A    21 B

          Ground-State Mulliken Net Atomic Charges

     Atom                 Charge (a.u.)    Spin (a.u.)
  --------------------------------------------------------
      1 S                     0.245639      -0.037055
      2 C                    -0.109514      -0.001807
      3 C                    -0.164917       0.388926
      4 C                    -0.124870      -0.195333
      5 C                    -0.026944       0.346355
      6 H                     0.214890       0.019023
      7 C                    -0.026944       0.346355
      8 S                     0.245639      -0.037055
      9 C                    -0.124870      -0.195333
     10 C                    -0.109514      -0.001807
     11 C                    -0.164917       0.388926
     12 H                     0.225374      -0.031175
     13 H                     0.240342       0.011065
     14 H                     0.225374      -0.031175
     15 H                     0.240342       0.011065
     16 H                     0.214890       0.019023
  --------------------------------------------------------
  Sum of atomic charges =     1.000000

                    Cartesian Multipole Moments
 -----------------------------------------------------------------
    Charge (ESU x 10^10)
                 4.8032
    Dipole Moment (Debye)
         X       0.0000      Y      -0.0000      Z      -0.7919
       Tot       0.7919
    Quadrupole Moments (Debye-Ang)
        XX     -22.7199     XY      -2.3091     YY     -71.7509
        XZ       0.0000     YZ       0.0000     ZZ     -57.0956

 Total job time:  25080.53s(wall), 122105.23s(cpu)
        *  Thank you very much for using Q-Chem.  Have a nice day.  *
