 Q-Chem 4.4, Q-Chem, Inc., Pleasanton, CA (2016)
 Q-Chem 4.4.1 for Intel X86 EM64T Linux

User input:
--------------------------------------------------------------
$molecule
 1  2
 S           1.81042700       -1.22909900       -0.13996800
 C           3.10211600       -0.18861200       -0.13982200
 C           2.74845300        1.15163900       -0.14006900
 C           1.39169900        1.31613900       -0.14029100
 C           0.68906700        0.11310500       -0.14015500
 H           0.90454800        2.27578700       -0.14040700
 C          -0.68906700       -0.11310500       -0.14015500
 S          -1.52408203       -0.51539392       -1.62335202
 C          -1.59576392       -0.07291899        0.91685415
 C          -2.97124021       -0.60871959       -0.81830717
 C          -2.87990251       -0.35081215        0.54054952
 H          -3.72923909       -0.37258723        1.19656059
 H           4.10439600       -0.57731800       -0.13934700
 H           3.47107900        1.94537000       -0.13983300
 H          -3.86979433       -0.85194039       -1.35598915
 H          -1.30365741        0.15569810        1.92712560
$end

$rem
         jobtype = opt
        exchange = hf
           basis = cc-pvtz
  max_scf_cycles = 100
      mem_static = 6200
       mem_total = 62000
          method = mp2
$end

$opt
CONSTRAINT
tors 4 5 7 9 -80.0
ENDCONSTRAINT
$end

--------------------------------------------------------------

   25   -1101.3189124449      7.86E-09 Convergence criterion met
 Total energy in the final basis set = -1101.3189124449
        MP2         total energy =     -1103.0820285375 au
   18   -1101.3218396793      6.41E-09 Convergence criterion met
 Total energy in the final basis set = -1101.3218396793
        MP2         total energy =     -1103.0869729440 au
   17   -1101.3224060992      9.75E-09 Convergence criterion met
 Total energy in the final basis set = -1101.3224060992
        MP2         total energy =     -1103.0876528820 au
   19   -1101.3236641457      9.08E-09 Convergence criterion met
 Total energy in the final basis set = -1101.3236641457
        MP2         total energy =     -1103.0879092370 au
   20   -1101.3265858786      9.90E-09 Convergence criterion met
 Total energy in the final basis set = -1101.3265858786
        MP2         total energy =     -1103.0882512902 au
 Total energy in the final basis set = -1101.3367227512
        MP2         total energy =     -1103.0893886321 au
   14   -1101.3368934007      9.49E-09 Convergence criterion met
 Total energy in the final basis set = -1101.3368934007
        MP2         total energy =     -1103.0894250054 au
   13   -1101.3367957766      9.36E-09 Convergence criterion met
 Total energy in the final basis set = -1101.3367957766
        MP2         total energy =     -1103.0894281467 au
   12   -1101.3369005743      9.77E-09 Convergence criterion met
 Total energy in the final basis set = -1101.3369005743
        MP2         total energy =     -1103.0894345114 au

             Standard Nuclear Orientation (Angstroms)
    I     Atom           X                Y                Z
 ----------------------------------------------------------------
    1      S       1.5660735812     0.5666648966     1.0058210637
    2      C       3.0032145420    -0.0006889126     0.4095127785
    3      C       2.8890706380    -0.6660367884    -0.7969911760
    4      C       1.5978760828    -0.6579584612    -1.2548481252
    5      C       0.7132607593     0.0183372960    -0.4220417558
    6      H       1.2747930715    -1.1367116449    -2.1627587047
    7      C      -0.7132607593    -0.0183372960    -0.4220417558
    8      S      -1.5660735812    -0.5666648966     1.0058210637
    9      C      -1.5978760828     0.6579584612    -1.2548481252
   10      C      -3.0032145420     0.0006889126     0.4095127785
   11      C      -2.8890706380     0.6660367884    -0.7969911760
   12      H      -3.7206149467     1.1333596492    -1.2891894414
   13      H       3.9198646699     0.1881849802     0.9395150997
   14      H       3.7206149467    -1.1333596492    -1.2891894414
   15      H      -3.9198646699    -0.1881849802     0.9395150997
   16      H      -1.2747930715     1.1367116449    -2.1627587047
 ----------------------------------------------------------------

    8   -1101.3369052428      7.07E-09 Convergence criterion met
 Total energy in the final basis set = -1101.3369052428
        MP2         total energy =     -1103.0894343327 au
 Final energy is   -1103.08943433269
 **  OPTIMIZATION CONVERGED  **

             Orbital Energies (a.u.) and Symmetries
 --------------------------------------------------------------
 Warning : Irrep of orbital(   1) could not be determined
 Warning : Irrep of orbital(   2) could not be determined
 Warning : Irrep of orbital(   5) could not be determined
 Warning : Irrep of orbital(   6) could not be determined
 Warning : Irrep of orbital(   7) could not be determined
 Warning : Irrep of orbital(   8) could not be determined
 Warning : Irrep of orbital(   9) could not be determined
 Warning : Irrep of orbital(  10) could not be determined
 Warning : Irrep of orbital(  11) could not be determined
 Warning : Irrep of orbital(  12) could not be determined
 Warning : Irrep of orbital(  13) could not be determined
 Warning : Irrep of orbital(  14) could not be determined
 Warning : Irrep of orbital(  15) could not be determined
 Warning : Irrep of orbital(  16) could not be determined
 Warning : Irrep of orbital(  17) could not be determined
 Warning : Irrep of orbital(  18) could not be determined
 Warning : Irrep of orbital(  72) could not be determined
 Warning : Irrep of orbital(  73) could not be determined
 Warning : Irrep of orbital( 310) could not be determined
 Warning : Irrep of orbital( 311) could not be determined

 Alpha MOs, Unrestricted
 -- Occupied --
-92.160 -92.160 -11.478 -11.477 -11.451 -11.451 -11.434 -11.434
  0 xxx   0 xxx   1 A     1 B     0 xxx   0 xxx   0 xxx   0 xxx
-11.402 -11.402  -9.162  -9.162  -6.843  -6.843  -6.842  -6.842
  0 xxx   0 xxx   0 xxx   0 xxx   0 xxx   0 xxx   0 xxx   0 xxx
 -6.840  -6.840  -1.394  -1.364  -1.229  -1.187  -1.185  -1.129
  0 xxx   0 xxx   2 A     2 B     3 A     4 A     3 B     4 B
 -0.996  -0.952  -0.935  -0.905  -0.887  -0.824  -0.753  -0.752
  5 A     6 A     5 B     6 B     7 A     7 B     8 B     8 A
 -0.745  -0.736  -0.727  -0.709  -0.693  -0.662  -0.650  -0.564
  9 A     9 B    10 A    11 A    10 B    12 A    11 B    12 B
 -0.539  -0.510  -0.494
 13 A    13 B    14 A

 Beta MOs, Unrestricted
 -- Occupied --
-92.161 -92.161 -11.477 -11.476 -11.439 -11.439 -11.427 -11.427
  0 xxx   0 xxx   1 A     1 B     0 xxx   0 xxx   0 xxx   0 xxx
-11.409 -11.409  -9.164  -9.164  -6.845  -6.845  -6.844  -6.844
  0 xxx   0 xxx   0 xxx   0 xxx   0 xxx   0 xxx   0 xxx   0 xxx
 -6.843  -6.843  -1.381  -1.349  -1.216  -1.183  -1.175  -1.107
  0 xxx   0 xxx   2 A     2 B     3 A     4 A     3 B     4 B
 -0.987  -0.944  -0.923  -0.900  -0.884  -0.819  -0.748  -0.740
  5 A     6 A     5 B     6 B     7 A     7 B     8 A     9 A
 -0.738  -0.723  -0.722  -0.675  -0.664  -0.663  -0.647  -0.537
  8 B     9 B    10 A    10 B    11 A    12 A    11 B    13 A
 -0.530  -0.488
 12 B    13 B

          Ground-State Mulliken Net Atomic Charges

     Atom                 Charge (a.u.)    Spin (a.u.)
  --------------------------------------------------------
      1 S                     0.262904      -0.039792
      2 C                    -0.109928      -0.096287
      3 C                    -0.157617       0.478995
      4 C                    -0.126415      -0.302428
      5 C                    -0.055881       0.455851
      6 H                     0.220694       0.023724
      7 C                    -0.056495       0.451984
      8 S                     0.262507      -0.039235
      9 C                    -0.126678      -0.301278
     10 C                    -0.110254      -0.096085
     11 C                    -0.157686       0.478012
     12 H                     0.226112      -0.035367
     13 H                     0.241032       0.016861
     14 H                     0.226181      -0.035440
     15 H                     0.240956       0.016839
     16 H                     0.220570       0.023645
  --------------------------------------------------------
  Sum of atomic charges =     1.000000

                    Cartesian Multipole Moments
 -----------------------------------------------------------------
    Charge (ESU x 10^10)
                 4.8032
    Dipole Moment (Debye)
         X       0.0151      Y      -0.0004      Z      -0.3128
       Tot       0.3132
    Quadrupole Moments (Debye-Ang)
        XX     -23.3203     XY      -3.9606     YY     -68.8197
        XZ      -0.0002     YZ       0.0027     ZZ     -59.6267

 Total job time:  38448.19s(wall), 186851.38s(cpu)
        *  Thank you very much for using Q-Chem.  Have a nice day.  *
