 Q-Chem 4.4, Q-Chem, Inc., Pleasanton, CA (2016)
 Q-Chem 4.4.1 for Intel X86 EM64T Linux

User input:
--------------------------------------------------------------
$molecule
 1  2
 S           1.81042700       -1.22909900       -0.13996800
 C           3.10211600       -0.18861200       -0.13982200
 C           2.74845300        1.15163900       -0.14006900
 C           1.39169900        1.31613900       -0.14029100
 C           0.68906700        0.11310500       -0.14015500
 H           0.90454800        2.27578700       -0.14040700
 C          -0.68906700       -0.11310500       -0.14015500
 S          -1.64988181        0.25101323       -1.55550396
 C          -1.50611201       -0.61910322        0.86850044
 C          -3.02875334       -0.25833365       -0.78715979
 C          -2.82216366       -0.70257325        0.50949829
 H          -3.61585255       -1.06336940        1.13566231
 H           4.10439600       -0.57731800       -0.13934700
 H           3.47107900        1.94537000       -0.13983300
 H          -3.97290287       -0.22377461       -1.30003904
 H          -1.12831743       -0.91252165        1.83256334
$end

$rem
         jobtype = opt
        exchange = hf
           basis = cc-pvtz
  max_scf_cycles = 100
      mem_static = 6200
       mem_total = 62000
          method = mp2
$end

$opt
CONSTRAINT
tors 4 5 7 9 -110.0
ENDCONSTRAINT
$end

--------------------------------------------------------------

   23   -1101.3303988046      8.08E-09 Convergence criterion met
 Total energy in the final basis set = -1101.3303988046
        MP2         total energy =     -1103.0859035027 au
   17   -1101.3344675368      6.97E-09 Convergence criterion met
 Total energy in the final basis set = -1101.3344675368
        MP2         total energy =     -1103.0904745889 au
   17   -1101.3373302971      7.03E-09 Convergence criterion met
 Total energy in the final basis set = -1101.3373302971
        MP2         total energy =     -1103.0924452338 au
   17   -1101.3405608069      8.13E-09 Convergence criterion met
 Total energy in the final basis set = -1101.3405608069
        MP2         total energy =     -1103.0938315585 au
   18   -1101.3432343307      4.77E-09 Convergence criterion met
 Total energy in the final basis set = -1101.3432343307
        MP2         total energy =     -1103.0946478246 au
   16   -1101.3442982764      5.45E-09 Convergence criterion met
 Total energy in the final basis set = -1101.3442982764
        MP2         total energy =     -1103.0948407902 au
   14   -1101.3447232302      8.77E-09 Convergence criterion met
 Total energy in the final basis set = -1101.3447232302
        MP2         total energy =     -1103.0948904400 au
   13   -1101.3448056081      4.80E-09 Convergence criterion met
 Total energy in the final basis set = -1101.3448056081
        MP2         total energy =     -1103.0948934171 au

             Standard Nuclear Orientation (Angstroms)
    I     Atom           X                Y                Z
 ----------------------------------------------------------------
    1      S       1.8111242863    -1.1541459941    -0.4761420031
    2      C       3.0890956802    -0.2689307755     0.0961478027
    3      C       2.7314767185     0.9566076547     0.6292493511
    4      C       1.3854028911     1.1780026857     0.5259050598
    5      C       0.6953241570     0.1386993499    -0.0932395519
    6      H       0.8890969972     2.0578062371     0.8971889941
    7      C      -0.6953241570    -0.1386993499    -0.0932395519
    8      S      -1.8111242863     1.1541459941    -0.4761420031
    9      C      -1.3854028911    -1.1780026857     0.5259050598
   10      C      -3.0890956802     0.2689307755     0.0961478027
   11      C      -2.7314767185    -0.9566076547     0.6292493511
   12      H      -3.4374919240    -1.6284917061     1.0788300560
   13      H       4.0907325101    -0.6521984129     0.0161398142
   14      H       3.4374919240     1.6284917061     1.0788300560
   15      H      -4.0907325101     0.6521984129     0.0161398142
   16      H      -0.8890969972    -2.0578062371     0.8971889941
 ----------------------------------------------------------------

   12   -1101.3448559352      7.31E-09 Convergence criterion met
 Total energy in the final basis set = -1101.3448559352
        MP2         total energy =     -1103.0948953687 au
 Final energy is   -1103.09489536868
 **  OPTIMIZATION CONVERGED  **

             Orbital Energies (a.u.) and Symmetries
 --------------------------------------------------------------

 Alpha MOs, Unrestricted
 -- Occupied --
-92.159 -92.159 -11.479 -11.478 -11.452 -11.452 -11.436 -11.436
  1 A     1 B     2 A     2 B     3 B     3 A     4 B     4 A
-11.403 -11.403  -9.162  -9.162  -6.842  -6.842  -6.842  -6.842
  5 B     5 A     6 A     6 B     7 B     7 A     8 A     8 B
 -6.840  -6.840  -1.395  -1.365  -1.230  -1.195  -1.180  -1.130
  9 B     9 A    10 A    10 B    11 A    11 B    12 A    12 B
 -0.997  -0.959  -0.930  -0.906  -0.888  -0.824  -0.756  -0.749
 13 A    13 B    14 A    14 B    15 A    15 B    16 A    17 A
 -0.748  -0.737  -0.734  -0.711  -0.693  -0.662  -0.644  -0.572
 16 B    18 A    17 B    18 B    19 A    19 B    20 A    21 A
 -0.535  -0.519  -0.487
 20 B    22 A    21 B

 Beta MOs, Unrestricted
 -- Occupied --
-92.161 -92.161 -11.478 -11.477 -11.440 -11.440 -11.429 -11.429
  1 A     1 B     2 A     2 B     3 B     3 A     4 A     4 B
-11.409 -11.409  -9.163  -9.163  -6.844  -6.844  -6.843  -6.843
  5 B     5 A     6 A     6 B     7 B     7 A     8 A     8 B
 -6.843  -6.843  -1.382  -1.350  -1.218  -1.186  -1.175  -1.107
  9 A     9 B    10 A    10 B    11 A    11 B    12 A    12 B
 -0.989  -0.949  -0.918  -0.901  -0.887  -0.819  -0.745  -0.744
 13 A    13 B    14 A    14 B    15 A    15 B    16 A    16 B
 -0.740  -0.729  -0.721  -0.680  -0.667  -0.659  -0.642  -0.535
 17 A    17 B    18 A    19 A    18 B    19 B    20 A    21 A
 -0.535  -0.499
 20 B    22 A

          Ground-State Mulliken Net Atomic Charges

     Atom                 Charge (a.u.)    Spin (a.u.)
  --------------------------------------------------------
      1 S                     0.263461      -0.037410
      2 C                    -0.105674      -0.058733
      3 C                    -0.170655       0.442684
      4 C                    -0.116916      -0.256796
      5 C                    -0.051556       0.408415
      6 H                     0.215771       0.021260
      7 C                    -0.051556       0.408415
      8 S                     0.263461      -0.037410
      9 C                    -0.116916      -0.256796
     10 C                    -0.105674      -0.058733
     11 C                    -0.170655       0.442684
     12 H                     0.224644      -0.033627
     13 H                     0.240926       0.014207
     14 H                     0.224644      -0.033627
     15 H                     0.240926       0.014207
     16 H                     0.215771       0.021260
  --------------------------------------------------------
  Sum of atomic charges =     1.000000

                    Cartesian Multipole Moments
 -----------------------------------------------------------------
    Charge (ESU x 10^10)
                 4.8032
    Dipole Moment (Debye)
         X      -0.0000      Y      -0.0000      Z       1.3186
       Tot       1.3186
    Quadrupole Moments (Debye-Ang)
        XX     -22.7686     XY      -0.6663     YY     -59.1084
        XZ      -0.0000     YZ      -0.0000     ZZ     -70.0103

 Total job time:  28504.93s(wall), 139257.45s(cpu)
        *  Thank you very much for using Q-Chem.  Have a nice day.  *
