 Q-Chem 4.4, Q-Chem, Inc., Pleasanton, CA (2016)
 Q-Chem 4.4.1 for Intel X86 EM64T Linux

User input:
--------------------------------------------------------------
$molecule
 1  2
 S           1.81042700       -1.22909900       -0.13996800
 C           3.10211600       -0.18861200       -0.13982200
 C           2.74845300        1.15163900       -0.14006900
 C           1.39169900        1.31613900       -0.14029100
 C           0.68906700        0.11310500       -0.14015500
 H           0.90454800        2.27578700       -0.14040700
 C          -0.68906700       -0.11310500       -0.14015500
 S          -1.80671534        1.20648656       -0.40188033
 C          -1.39434406       -1.30002459        0.04636233
 C          -3.10042602        0.17831620       -0.25957058
 C          -2.75016136       -1.14123121       -0.01986322
 H          -3.47443812       -1.92490530        0.09622030
 H           4.10439600       -0.57731800       -0.13934700
 H           3.47107900        1.94537000       -0.13983300
 H          -4.10137214        0.55889580       -0.35403657
 H          -0.90972155       -2.24426827        0.22464664
$end

$rem
         jobtype = opt
        exchange = hf
           basis = cc-pvtz
  max_scf_cycles = 100
      mem_static = 6200
       mem_total = 62000
          method = mp2
$end

$opt
CONSTRAINT
tors 4 5 7 9 -170.0
ENDCONSTRAINT
$end

--------------------------------------------------------------

   22   -1101.3667880197      9.31E-09 Convergence criterion met
 Total energy in the final basis set = -1101.3667880197
        MP2         total energy =     -1103.1101200566 au
   10   -1101.3670488644      9.40E-09 Convergence criterion met
 Total energy in the final basis set = -1101.3670488644
        MP2         total energy =     -1103.1103728307 au
   12   -1101.3671308886      9.12E-09 Convergence criterion met
 Total energy in the final basis set = -1101.3671308886
        MP2         total energy =     -1103.1104375774 au
    9   -1101.3671498336      8.29E-09 Convergence criterion met
 Total energy in the final basis set = -1101.3671498336
        MP2         total energy =     -1103.1104409272 au

             Standard Nuclear Orientation (Angstroms)
    I     Atom           X                Y                Z
 ----------------------------------------------------------------
    1      S       1.8280820224    -1.2008603801    -0.0747921102
    2      C       3.1042164114    -0.1451126924     0.0143534144
    3      C       2.7309925433     1.1872857876     0.0954004377
    4      C       1.3722282468     1.3332700697     0.0787779276
    5      C       0.6874624711     0.1235343791    -0.0147959893
    6      H       0.8708760648     2.2836388759     0.1392391733
    7      C      -0.6874624711    -0.1235343791    -0.0147959893
    8      S      -1.8280820224     1.2008603801    -0.0747921102
    9      C      -1.3722282468    -1.3332700697     0.0787779276
   10      C      -3.1042164114     0.1451126924     0.0143534144
   11      C      -2.7309925433    -1.1872857876     0.0954004377
   12      H      -3.4415414622    -1.9886984016     0.1664176862
   13      H       4.1120191109    -0.5191014119     0.0025164595
   14      H       3.4415414622     1.9886984016     0.1664176862
   15      H      -4.1120191109     0.5191014119     0.0025164595
   16      H      -0.8708760648    -2.2836388759     0.1392391733
 ----------------------------------------------------------------

    9   -1101.3671543847      6.13E-09 Convergence criterion met
 Total energy in the final basis set = -1101.3671543847
        MP2         total energy =     -1103.1104412764 au
 Final energy is   -1103.11044127644
 **  OPTIMIZATION CONVERGED  **

             Orbital Energies (a.u.) and Symmetries
 --------------------------------------------------------------

 Alpha MOs, Unrestricted
 -- Occupied --
-92.160 -92.160 -11.476 -11.475 -11.452 -11.452 -11.434 -11.434
  1 A     1 B     2 A     2 B     3 B     3 A     4 B     4 A
-11.405 -11.405  -9.162  -9.162  -6.843  -6.843  -6.842  -6.842
  5 B     5 A     6 A     6 B     7 A     7 B     8 A     8 B
 -6.840  -6.840  -1.395  -1.365  -1.232  -1.199  -1.178  -1.129
  9 B     9 A    10 A    10 B    11 A    11 B    12 A    12 B
 -1.001  -0.966  -0.922  -0.905  -0.891  -0.823  -0.752  -0.750
 13 A    13 B    14 A    14 B    15 A    15 B    16 A    16 B
 -0.749  -0.743  -0.734  -0.711  -0.696  -0.666  -0.641  -0.585
 17 A    18 A    17 B    18 B    19 A    19 B    20 A    21 A
 -0.543  -0.520  -0.475
 20 B    22 A    21 B

 Beta MOs, Unrestricted
 -- Occupied --
-92.161 -92.161 -11.476 -11.475 -11.440 -11.440 -11.426 -11.426
  1 A     1 B     2 A     2 B     3 B     3 A     4 A     4 B
-11.412 -11.412  -9.164  -9.164  -6.845  -6.845  -6.844  -6.844
  5 B     5 A     6 A     6 B     7 A     7 B     8 B     8 A
 -6.843  -6.843  -1.384  -1.349  -1.222  -1.190  -1.174  -1.106
  9 A     9 B    10 A    10 B    11 A    11 B    12 A    12 B
 -0.993  -0.956  -0.910  -0.901  -0.890  -0.818  -0.748  -0.745
 13 A    13 B    14 A    14 B    15 A    15 B    16 B    16 A
 -0.739  -0.730  -0.721  -0.691  -0.665  -0.662  -0.641  -0.539
 17 A    17 B    18 A    19 A    18 B    19 B    20 A    20 B
 -0.533  -0.520
 21 A    22 A

          Ground-State Mulliken Net Atomic Charges

     Atom                 Charge (a.u.)    Spin (a.u.)
  --------------------------------------------------------
      1 S                     0.246743      -0.014618
      2 C                    -0.116404       0.012021
      3 C                    -0.159574       0.400202
      4 C                    -0.151537      -0.204536
      5 C                     0.014388       0.310698
      6 H                     0.199234       0.018396
      7 C                     0.014388       0.310698
      8 S                     0.246743      -0.014618
      9 C                    -0.151537      -0.204536
     10 C                    -0.116404       0.012021
     11 C                    -0.159574       0.400202
     12 H                     0.225174      -0.031745
     13 H                     0.241976       0.009582
     14 H                     0.225174      -0.031745
     15 H                     0.241976       0.009582
     16 H                     0.199234       0.018396
  --------------------------------------------------------
  Sum of atomic charges =     1.000000

                    Cartesian Multipole Moments
 -----------------------------------------------------------------
    Charge (ESU x 10^10)
                 4.8032
    Dipole Moment (Debye)
         X      -0.0000      Y      -0.0000      Z       0.2051
       Tot       0.2051
    Quadrupole Moments (Debye-Ang)
        XX     -22.0016     XY       2.0860     YY     -55.9000
        XZ       0.0000     YZ       0.0000     ZZ     -73.4724

 Total job time:  15431.88s(wall), 75281.88s(cpu)
        *  Thank you very much for using Q-Chem.  Have a nice day.  *
