 Q-Chem 4.4, Q-Chem, Inc., Pleasanton, CA (2016)
 Q-Chem 4.4.1 for Intel X86 EM64T Linux

User input:
--------------------------------------------------------------
$molecule
 1  2
 S           1.81042700       -1.22909900       -0.13996800
 C           3.10211600       -0.18861200       -0.13982200
 C           2.74845300        1.15163900       -0.14006900
 C           1.39169900        1.31613900       -0.14029100
 C           0.68906700        0.11310500       -0.14015500
 H           0.90454800        2.27578700       -0.14040700
 C          -0.68906700       -0.11310500       -0.14015500
 S          -1.35519045       -1.54432823       -0.89304243
 C          -1.71612566        0.66035812        0.39639682
 C          -2.89400451       -1.07926088       -0.48458517
 C          -2.95740421        0.12134968        0.20524459
 H          -3.88142201        0.55455333        0.53799524
 H           4.10439600       -0.57731800       -0.13934700
 H           3.47107900        1.94537000       -0.13983300
 H          -3.73130888       -1.69563213       -0.75783534
 H          -1.53905805        1.58982406        0.90921309
$end

$rem
         jobtype = opt
        exchange = hf
           basis = cc-pvtz
  max_scf_cycles = 100
      mem_static = 6200
       mem_total = 62000
          method = mp2
$end

$opt
CONSTRAINT
tors 4 5 7 9 -30.0
ENDCONSTRAINT
$end

--------------------------------------------------------------

   22   -1101.3601191947      4.81E-09 Convergence criterion met
 Total energy in the final basis set = -1101.3601191947
        MP2         total energy =     -1103.1047192010 au
   15   -1101.3618761854      6.19E-09 Convergence criterion met
 Total energy in the final basis set = -1101.3618761854
        MP2         total energy =     -1103.1057849877 au
   16   -1101.3635330651      5.08E-09 Convergence criterion met
 Total energy in the final basis set = -1101.3635330651
        MP2         total energy =     -1103.1063365931 au
   15   -1101.3642600037      7.60E-09 Convergence criterion met
 Total energy in the final basis set = -1101.3642600037
        MP2         total energy =     -1103.1064358905 au
   13   -1101.3645025645      9.70E-09 Convergence criterion met
 Total energy in the final basis set = -1101.3645025645
        MP2         total energy =     -1103.1064706735 au
   11   -1101.3644910840      7.14E-09 Convergence criterion met
 Total energy in the final basis set = -1101.3644910840
        MP2         total energy =     -1103.1064722400 au

             Standard Nuclear Orientation (Angstroms)
    I     Atom           X                Y                Z
 ----------------------------------------------------------------
    1      S       1.6229529778     0.2341576427     1.1487614731
    2      C       3.0476226472     0.0157012358     0.3199498519
    3      C       2.8810145992    -0.2340223857    -1.0301100384
    4      C       1.5612755550    -0.2324370352    -1.3856626533
    5      C       0.6996713738     0.0242217230    -0.3171210119
    6      H       1.2046345243    -0.4277090489    -2.3813187671
    7      C      -0.6996713738    -0.0242217230    -0.3171210119
    8      S      -1.6229529778    -0.2341576427     1.1487614731
    9      C      -1.5612755550     0.2324370352    -1.3856626533
   10      C      -3.0476226472    -0.0157012358     0.3199498519
   11      C      -2.8810145992     0.2340223857    -1.0301100384
   12      H      -3.7032161573     0.4143190016    -1.6960944051
   13      H       3.9859361066     0.0887110691     0.8393494798
   14      H       3.7032161573    -0.4143190016    -1.6960944051
   15      H      -3.9859361066    -0.0887110691     0.8393494798
   16      H      -1.2046345243     0.4277090489    -2.3813187671
 ----------------------------------------------------------------

   10   -1101.3644435950      8.94E-09 Convergence criterion met
 Total energy in the final basis set = -1101.3644435950
        MP2         total energy =     -1103.1064736747 au
 Final energy is   -1103.10647367468
 **  OPTIMIZATION CONVERGED  **

             Orbital Energies (a.u.) and Symmetries
 --------------------------------------------------------------

 Alpha MOs, Unrestricted
 -- Occupied --
-92.160 -92.160 -11.476 -11.475 -11.452 -11.452 -11.434 -11.434
  1 A     1 B     2 A     2 B     3 B     3 A     4 B     4 A
-11.403 -11.403  -9.163  -9.163  -6.843  -6.843  -6.843  -6.843
  5 A     5 B     6 B     6 A     7 B     7 A     8 A     8 B
 -6.840  -6.840  -1.395  -1.364  -1.232  -1.192  -1.183  -1.129
  9 A     9 B    10 A    10 B    11 A    12 A    11 B    12 B
 -1.001  -0.961  -0.925  -0.905  -0.892  -0.822  -0.753  -0.752
 13 A    14 A    13 B    14 B    15 A    15 B    16 A    16 B
 -0.750  -0.736  -0.732  -0.710  -0.692  -0.669  -0.644  -0.582
 17 A    17 B    18 A    19 A    18 B    20 A    19 B    20 B
 -0.535  -0.526  -0.477
 21 A    21 B    22 A

 Beta MOs, Unrestricted
 -- Occupied --
-92.162 -92.162 -11.476 -11.475 -11.439 -11.439 -11.427 -11.427
  1 A     1 B     2 A     2 B     3 B     3 A     4 B     4 A
-11.410 -11.410  -9.164  -9.164  -6.845  -6.845  -6.844  -6.844
  5 B     5 A     6 B     6 A     7 B     7 A     8 B     8 A
 -6.844  -6.844  -1.383  -1.349  -1.222  -1.188  -1.174  -1.105
  9 B     9 A    10 A    10 B    11 A    12 A    11 B    12 B
 -0.992  -0.953  -0.914  -0.899  -0.889  -0.818  -0.752  -0.743
 13 A    14 A    13 B    14 B    15 A    15 B    16 A    17 A
 -0.733  -0.730  -0.721  -0.684  -0.669  -0.661  -0.643  -0.540
 16 B    18 A    17 B    18 B    19 A    20 A    19 B    20 B
 -0.533  -0.517
 21 A    21 B

          Ground-State Mulliken Net Atomic Charges

     Atom                 Charge (a.u.)    Spin (a.u.)
  --------------------------------------------------------
      1 S                     0.240207      -0.032735
      2 C                    -0.110552       0.023106
      3 C                    -0.169343       0.369221
      4 C                    -0.119217      -0.172278
      5 C                    -0.016011       0.315773
      6 H                     0.209112       0.017941
      7 C                    -0.016011       0.315773
      8 S                     0.240207      -0.032735
      9 C                    -0.119217      -0.172278
     10 C                    -0.110552       0.023106
     11 C                    -0.169343       0.369221
     12 H                     0.224756      -0.030487
     13 H                     0.241048       0.009459
     14 H                     0.224756      -0.030487
     15 H                     0.241048       0.009459
     16 H                     0.209112       0.017941
  --------------------------------------------------------
  Sum of atomic charges =     1.000000

                    Cartesian Multipole Moments
 -----------------------------------------------------------------
    Charge (ESU x 10^10)
                 4.8032
    Dipole Moment (Debye)
         X      -0.0000      Y       0.0000      Z      -0.9666
       Tot       0.9666
    Quadrupole Moments (Debye-Ang)
        XX     -22.3928     XY      -1.2252     YY     -72.8708
        XZ       0.0000     YZ      -0.0000     ZZ     -56.1355

 Total job time:  21406.69s(wall), 106036.59s(cpu)
        *  Thank you very much for using Q-Chem.  Have a nice day.  *
