 Q-Chem 4.4, Q-Chem, Inc., Pleasanton, CA (2016)
 Q-Chem 4.4.1 for Intel X86 EM64T Linux

User input:
--------------------------------------------------------------
$molecule
 1  2
 S           1.81042700       -1.22909900       -0.13996800
 C           3.10211600       -0.18861200       -0.13982200
 C           2.74845300        1.15163900       -0.14006900
 C           1.39169900        1.31613900       -0.14029100
 C           0.68906700        0.11310500       -0.14015500
 H           0.90454800        2.27578700       -0.14040700
 C          -0.68906700       -0.11310500       -0.14015500
 S          -1.40968969       -1.21230372        1.01371890
 C          -1.67728703        0.42374241       -0.96246795
 C          -2.91887050       -0.92777039        0.38723045
 C          -2.93235577       -0.03125236       -0.66985228
 H          -3.83220142        0.25468784       -1.18045320
 H           4.10439600       -0.57731800       -0.13934700
 H           3.47107900        1.94537000       -0.13983300
 H          -3.77584558       -1.42430217        0.80521091
 H          -1.46309516        1.12703704       -1.74843162
$end

$rem
         jobtype = opt
        exchange = hf
           basis = cc-pvtz
  max_scf_cycles = 100
      mem_static = 6200
       mem_total = 62000
          method = mp2
$end

$opt
CONSTRAINT
tors 4 5 7 9 50.0
ENDCONSTRAINT
$end

--------------------------------------------------------------

   22   -1101.3481561594      6.17E-09 Convergence criterion met
 Total energy in the final basis set = -1101.3481561594
        MP2         total energy =     -1103.0970488473 au
   16   -1101.3510496722      5.27E-09 Convergence criterion met
 Total energy in the final basis set = -1101.3510496722
        MP2         total energy =     -1103.0994110849 au
   16   -1101.3535042181      5.58E-09 Convergence criterion met
 Total energy in the final basis set = -1101.3535042181
        MP2         total energy =     -1103.1005715150 au
   16   -1101.3558210345      8.92E-09 Convergence criterion met
 Total energy in the final basis set = -1101.3558210345
        MP2         total energy =     -1103.1011261030 au
   16   -1101.3568399536      4.40E-09 Convergence criterion met
 Total energy in the final basis set = -1101.3568399536
        MP2         total energy =     -1103.1012851598 au
   14   -1101.3571514352      7.06E-09 Convergence criterion met
 Total energy in the final basis set = -1101.3571514352
        MP2         total energy =     -1103.1013176747 au
    9   -1101.3571424875      6.52E-09 Convergence criterion met
 Total energy in the final basis set = -1101.3571424875
        MP2         total energy =     -1103.1013198205 au

             Standard Nuclear Orientation (Angstroms)
    I     Atom           X                Y                Z
 ----------------------------------------------------------------
    1      S       1.5997736185    -0.3666444686     1.1118814797
    2      C       3.0332275553    -0.0083144387     0.3514819782
    3      C       2.8879087312     0.3949246073    -0.9626377239
    4      C       1.5766791504     0.3841786088    -1.3514670200
    5      C       0.7027206915    -0.0374184463    -0.3489715568
    6      H       1.2315515801     0.6878005624    -2.3241394820
    7      C      -0.7027206915     0.0374184463    -0.3489715568
    8      S      -1.5997736185     0.3666444686     1.1118814797
    9      C      -1.5766791504    -0.3841786088    -1.3514670200
   10      C      -3.0332275553     0.0083144387     0.3514819782
   11      C      -2.8879087312    -0.3949246073    -0.9626377239
   12      H      -3.7160036563    -0.6894801537    -1.5787171098
   13      H       3.9633310073    -0.1209102612     0.8788077894
   14      H       3.7160036563     0.6894801537    -1.5787171098
   15      H      -3.9633310073     0.1209102612     0.8788077894
   16      H      -1.2315515801    -0.6878005624    -2.3241394820
 ----------------------------------------------------------------

    8   -1101.3571414149      6.73E-09 Convergence criterion met
 Total energy in the final basis set = -1101.3571414149
        MP2         total energy =     -1103.1013192141 au
 Final energy is   -1103.10131921414
 **  OPTIMIZATION CONVERGED  **

             Orbital Energies (a.u.) and Symmetries
 --------------------------------------------------------------

 Alpha MOs, Unrestricted
 -- Occupied --
-92.160 -92.160 -11.477 -11.476 -11.451 -11.451 -11.435 -11.435
  1 A     1 B     2 A     2 B     3 B     3 A     4 B     4 A
-11.402 -11.402  -9.162  -9.162  -6.843  -6.843  -6.843  -6.843
  5 A     5 B     6 B     6 A     7 B     7 A     8 A     8 B
 -6.840  -6.840  -1.395  -1.364  -1.231  -1.191  -1.183  -1.129
  9 A     9 B    10 A    10 B    11 A    12 A    11 B    12 B
 -1.000  -0.959  -0.928  -0.905  -0.890  -0.822  -0.753  -0.753
 13 A    14 A    13 B    14 B    15 A    15 B    16 B    16 A
 -0.748  -0.736  -0.730  -0.710  -0.692  -0.667  -0.646  -0.577
 17 A    17 B    18 A    19 A    18 B    20 A    19 B    20 B
 -0.536  -0.521  -0.482
 21 A    21 B    22 A

 Beta MOs, Unrestricted
 -- Occupied --
-92.162 -92.162 -11.477 -11.476 -11.439 -11.439 -11.427 -11.427
  1 A     1 B     2 A     2 B     3 B     3 A     4 B     4 A
-11.409 -11.409  -9.164  -9.164  -6.845  -6.845  -6.844  -6.844
  5 B     5 A     6 B     6 A     7 B     7 A     8 B     8 A
 -6.844  -6.844  -1.383  -1.349  -1.221  -1.186  -1.174  -1.106
  9 B     9 A    10 A    10 B    11 A    12 A    11 B    12 B
 -0.991  -0.951  -0.917  -0.900  -0.887  -0.819  -0.751  -0.742
 13 A    14 A    13 B    14 B    15 A    15 B    16 A    17 A
 -0.736  -0.727  -0.722  -0.681  -0.668  -0.661  -0.645  -0.537
 16 B    18 A    17 B    18 B    19 A    20 A    19 B    20 B
 -0.535  -0.510
 21 A    21 B

          Ground-State Mulliken Net Atomic Charges

     Atom                 Charge (a.u.)    Spin (a.u.)
  --------------------------------------------------------
      1 S                     0.245639      -0.037055
      2 C                    -0.109514      -0.001806
      3 C                    -0.164917       0.388926
      4 C                    -0.124870      -0.195333
      5 C                    -0.026944       0.346355
      6 H                     0.214890       0.019023
      7 C                    -0.026944       0.346355
      8 S                     0.245639      -0.037055
      9 C                    -0.124870      -0.195333
     10 C                    -0.109514      -0.001806
     11 C                    -0.164917       0.388926
     12 H                     0.225374      -0.031175
     13 H                     0.240342       0.011065
     14 H                     0.225374      -0.031175
     15 H                     0.240342       0.011065
     16 H                     0.214890       0.019023
  --------------------------------------------------------
  Sum of atomic charges =     1.000000

                    Cartesian Multipole Moments
 -----------------------------------------------------------------
    Charge (ESU x 10^10)
                 4.8032
    Dipole Moment (Debye)
         X       0.0000      Y       0.0000      Z      -0.7914
       Tot       0.7914
    Quadrupole Moments (Debye-Ang)
        XX     -22.7202     XY       2.3124     YY     -71.7506
        XZ       0.0000     YZ       0.0000     ZZ     -57.0957

 Total job time:  24902.79s(wall), 121697.85s(cpu)
        *  Thank you very much for using Q-Chem.  Have a nice day.  *
