 Q-Chem 4.4, Q-Chem, Inc., Pleasanton, CA (2016)
 Q-Chem 4.4.1 for Intel X86 EM64T Linux

User input:
--------------------------------------------------------------
$molecule
 1  2
 S           1.81042700       -1.22909900       -0.13996800
 C           3.10211600       -0.18861200       -0.13982200
 C           2.74845300        1.15163900       -0.14006900
 C           1.39169900        1.31613900       -0.14029100
 C           0.68906700        0.11310500       -0.14015500
 H           0.90454800        2.27578700       -0.14040700
 C          -0.68906700       -0.11310500       -0.14015500
 S          -1.60880570        0.00076616       -1.62341963
 C          -1.53538512       -0.44076337        0.91690138
 C          -3.00997538       -0.37273416       -0.81825212
 C          -2.84101738       -0.58771115        0.54064022
 H          -3.65287791       -0.83780067        1.19679189
 H           4.10439600       -0.57731800       -0.13934700
 H           3.47107900        1.94537000       -0.13983300
 H          -3.93923911       -0.42886352       -1.35581718
 H          -1.18556944       -0.56372654        1.92722284
$end

$rem
         jobtype = opt
        exchange = hf
           basis = cc-pvtz
  max_scf_cycles = 100
      mem_static = 6200
       mem_total = 62000
          method = mp2
$end

$opt
CONSTRAINT
tors 4 5 7 9 -100.0
ENDCONSTRAINT
$end

--------------------------------------------------------------

   26   -1101.3196636855      9.34E-09 Convergence criterion met
 Total energy in the final basis set = -1101.3196636855
        MP2         total energy =     -1103.0805254099 au
   18   -1101.3232341282      4.01E-09 Convergence criterion met
 Total energy in the final basis set = -1101.3232341282
        MP2         total energy =     -1103.0857149624 au
   18   -1101.3247753320      4.51E-09 Convergence criterion met
 Total energy in the final basis set = -1101.3247753320
        MP2         total energy =     -1103.0871464887 au
   17   -1101.3277049387      6.07E-09 Convergence criterion met
 Total energy in the final basis set = -1101.3277049387
        MP2         total energy =     -1103.0882570059 au
   18   -1101.3312605599      6.58E-09 Convergence criterion met
 Total energy in the final basis set = -1101.3312605599
        MP2         total energy =     -1103.0892644100 au
 Total energy in the final basis set = -1101.3365745013
        MP2         total energy =     -1103.0903600394 au
   15   -1101.3375051338      8.79E-09 Convergence criterion met
 Total energy in the final basis set = -1101.3375051338
        MP2         total energy =     -1103.0904900668 au
   14   -1101.3377471055      8.57E-09 Convergence criterion met
 Total energy in the final basis set = -1101.3377471055
        MP2         total energy =     -1103.0905080021 au
   13   -1101.3378162886      6.58E-09 Convergence criterion met
 Total energy in the final basis set = -1101.3378162886
        MP2         total energy =     -1103.0905114477 au

             Standard Nuclear Orientation (Angstroms)
    I     Atom           X                Y                Z
 ----------------------------------------------------------------
    1      S       1.8099768864    -1.1340462786    -0.5403048098
    2      C       3.0879673249    -0.2943171805     0.0946902314
    3      C       2.7330385867     0.8942759516     0.7059834840
    4      C       1.3890995624     1.1310370761     0.6039786784
    5      C       0.6979391868     0.1426728609    -0.0924022510
    6      H       0.8940933514     1.9877053546     1.0277425378
    7      C      -0.6979391868    -0.1426728609    -0.0924022510
    8      S      -1.8099768864     1.1340462786    -0.5403048098
    9      C      -1.3890995624    -1.1310370761     0.6039786784
   10      C      -3.0879673249     0.2943171805     0.0946902314
   11      C      -2.7330385867    -0.8942759516     0.7059834840
   12      H      -3.4384789110    -1.5307767216     1.2051775475
   13      H       4.0891768947    -0.6735928907    -0.0082525826
   14      H       3.4384789110     1.5307767216     1.2051775475
   15      H      -4.0891768947     0.6735928907    -0.0082525826
   16      H      -0.8940933514    -1.9877053546     1.0277425378
 ----------------------------------------------------------------

    9   -1101.3378328604      8.62E-09 Convergence criterion met
 Total energy in the final basis set = -1101.3378328604
        MP2         total energy =     -1103.0905151154 au
 Final energy is   -1103.09051511535
 **  OPTIMIZATION CONVERGED  **

             Orbital Energies (a.u.) and Symmetries
 --------------------------------------------------------------
 Warning : Irrep of orbital(   1) could not be determined
 Warning : Irrep of orbital(   2) could not be determined
 Warning : Irrep of orbital(   5) could not be determined
 Warning : Irrep of orbital(   6) could not be determined
 Warning : Irrep of orbital(   7) could not be determined
 Warning : Irrep of orbital(   8) could not be determined
 Warning : Irrep of orbital(   9) could not be determined
 Warning : Irrep of orbital(  10) could not be determined
 Warning : Irrep of orbital(  11) could not be determined
 Warning : Irrep of orbital(  12) could not be determined
 Warning : Irrep of orbital(  13) could not be determined
 Warning : Irrep of orbital(  14) could not be determined
 Warning : Irrep of orbital(  15) could not be determined
 Warning : Irrep of orbital(  16) could not be determined
 Warning : Irrep of orbital(  17) could not be determined
 Warning : Irrep of orbital(  18) could not be determined

 Alpha MOs, Unrestricted
 -- Occupied --
-92.159 -92.159 -11.480 -11.479 -11.451 -11.451 -11.437 -11.437
  0 xxx   0 xxx   1 A     1 B     0 xxx   0 xxx   0 xxx   0 xxx
-11.402 -11.402  -9.162  -9.162  -6.842  -6.842  -6.842  -6.842
  0 xxx   0 xxx   0 xxx   0 xxx   0 xxx   0 xxx   0 xxx   0 xxx
 -6.840  -6.840  -1.395  -1.365  -1.230  -1.194  -1.180  -1.130
  0 xxx   0 xxx   2 A     2 B     3 A     3 B     4 A     4 B
 -0.996  -0.956  -0.932  -0.906  -0.888  -0.825  -0.756  -0.749
  5 A     5 B     6 A     6 B     7 A     7 B     8 A     9 A
 -0.747  -0.736  -0.734  -0.710  -0.692  -0.661  -0.645  -0.569
  8 B    10 A     9 B    10 B    11 A    11 B    12 A    13 A
 -0.534  -0.517  -0.491
 12 B    14 A    13 B

 Beta MOs, Unrestricted
 -- Occupied --
-92.161 -92.161 -11.479 -11.478 -11.440 -11.440 -11.430 -11.430
  0 xxx   0 xxx   1 A     1 B     0 xxx   0 xxx   0 xxx   0 xxx
-11.409 -11.409  -9.163  -9.163  -6.844  -6.844  -6.844  -6.844
  0 xxx   0 xxx   0 xxx   0 xxx   0 xxx   0 xxx   0 xxx   0 xxx
 -6.843  -6.843  -1.382  -1.350  -1.217  -1.185  -1.176  -1.107
  0 xxx   0 xxx   2 A     2 B     3 A     3 B     4 A     4 B
 -0.988  -0.947  -0.920  -0.901  -0.886  -0.820  -0.745  -0.743
  5 A     5 B     6 A     6 B     7 A     7 B     8 A     8 B
 -0.740  -0.729  -0.721  -0.678  -0.667  -0.658  -0.642  -0.536
  9 A     9 B    10 A    11 A    10 B    11 B    12 A    13 A
 -0.534  -0.492
 12 B    14 A

          Ground-State Mulliken Net Atomic Charges

     Atom                 Charge (a.u.)    Spin (a.u.)
  --------------------------------------------------------
      1 S                     0.268374      -0.042968
      2 C                    -0.105572      -0.087669
      3 C                    -0.169611       0.460635
      4 C                    -0.113380      -0.281377
      5 C                    -0.063475       0.447398
      6 H                     0.218105       0.022557
      7 C                    -0.063502       0.447212
      8 S                     0.268355      -0.042942
      9 C                    -0.113394      -0.281320
     10 C                    -0.105587      -0.087653
     11 C                    -0.169613       0.460588
     12 H                     0.224724      -0.034457
     13 H                     0.240876       0.015953
     14 H                     0.224727      -0.034461
     15 H                     0.240873       0.015951
     16 H                     0.218099       0.022553
  --------------------------------------------------------
  Sum of atomic charges =     1.000000

                    Cartesian Multipole Moments
 -----------------------------------------------------------------
    Charge (ESU x 10^10)
                 4.8032
    Dipole Moment (Debye)
         X       0.0007      Y       0.0000      Z       1.4379
       Tot       1.4379
    Quadrupole Moments (Debye-Ang)
        XX     -22.8703     XY      -1.2645     YY     -59.9891
        XZ       0.0001     YZ       0.0001     ZZ     -69.0605

 Total job time:  35140.41s(wall), 171355.63s(cpu)
        *  Thank you very much for using Q-Chem.  Have a nice day.  *
