 Q-Chem 4.4, Q-Chem, Inc., Pleasanton, CA (2016)
 Q-Chem 4.4.1 for Intel X86 EM64T Linux

User input:
--------------------------------------------------------------
$molecule
 1  2
 S           1.81042700       -1.22909900       -0.13996800
 C           3.10211600       -0.18861200       -0.13982200
 C           2.74845300        1.15163900       -0.14006900
 C           1.39169900        1.31613900       -0.14029100
 C           0.68906700        0.11310500       -0.14015500
 H           0.90454800        2.27578700       -0.14040700
 C          -0.68906700       -0.11310500       -0.14015500
 S          -1.81042700        1.22909900       -0.14034967
 C          -1.39169900       -1.31613900       -0.14001900
 C          -3.10211601        0.18861206       -0.13999650
 C          -2.74845301       -1.15163896       -0.13989383
 H          -3.47107902       -1.94536988       -0.13948900
 H           4.10439600       -0.57731800       -0.13934700
 H           3.47107900        1.94537000       -0.13983300
 H          -4.10439603        0.57731816       -0.13965984
 H          -0.90454800       -2.27578700       -0.13987503
$end

$rem
         jobtype = opt
        exchange = hf
           basis = cc-pvtz
  max_scf_cycles = 100
      mem_static = 6200
       mem_total = 62000
          method = mp2
$end

$opt
CONSTRAINT
tors 4 5 7 9 180.0
ENDCONSTRAINT
$end

--------------------------------------------------------------

             Standard Nuclear Orientation (Angstroms)
    I     Atom           X                Y                Z
 ----------------------------------------------------------------
    1      S       1.8287307320    -1.2016963923    -0.0000878867
    2      C       3.1046045582    -0.1418758375     0.0001616992
    3      C       2.7307987979     1.1928973904     0.0000895342
    4      C       1.3717214325     1.3369473832    -0.0000840523
    5      C       0.6872856147     0.1234688451    -0.0000840517
    6      H       0.8701743175     2.2891505577    -0.0000700659
    7      C      -0.6872856142    -0.1234688446    -0.0000840514
    8      S      -1.8287307316     1.2016963938    -0.0000878863
    9      C      -1.3717214320    -1.3369473827    -0.0000840507
   10      C      -3.1046045576     0.1418758366     0.0001616978
   11      C      -2.7307988002    -1.1928973933     0.0000895328
   12      H      -3.4413900554    -1.9974203905     0.0004099505
   13      H       4.1126244456    -0.5154444663     0.0005675275
   14      H       3.4413900562     1.9974203876     0.0004099465
   15      H      -4.1126244483     0.5154444639     0.0005675295
   16      H      -0.8701743164    -2.2891505606    -0.0000700671
 ----------------------------------------------------------------

   21   -1101.3674372017      8.90E-09 Convergence criterion met
 Total energy in the final basis set = -1101.3674372017
        MP2         total energy =     -1103.1106368989 au
 Final energy is   -1103.11063689888
 **  OPTIMIZATION CONVERGED  **

             Orbital Energies (a.u.) and Symmetries
 --------------------------------------------------------------

 Alpha MOs, Unrestricted
 -- Occupied --
-92.160 -92.160 -11.476 -11.474 -11.453 -11.453 -11.434 -11.434
  1 A     1 B     2 A     2 B     3 B     3 A     4 A     4 B
-11.405 -11.405  -9.162  -9.162  -6.843  -6.843  -6.842  -6.842
  5 B     5 A     6 A     6 B     7 A     7 B     8 A     8 B
 -6.840  -6.840  -1.395  -1.365  -1.232  -1.199  -1.178  -1.129
  9 B     9 A    10 A    10 B    11 A    11 B    12 A    12 B
 -1.001  -0.966  -0.922  -0.905  -0.891  -0.823  -0.752  -0.750
 13 A    13 B    14 A    14 B    15 A    15 B    16 A    16 B
 -0.749  -0.743  -0.734  -0.711  -0.696  -0.666  -0.640  -0.585
 17 A    18 A    17 B    18 B    19 A    19 B    20 A    21 A
 -0.543  -0.520  -0.474
 20 B    22 A    21 B

 Beta MOs, Unrestricted
 -- Occupied --
-92.161 -92.161 -11.476 -11.474 -11.440 -11.440 -11.426 -11.426
  1 A     1 B     2 A     2 B     3 B     3 A     4 A     4 B
-11.412 -11.412  -9.164  -9.164  -6.845  -6.845  -6.844  -6.844
  5 B     5 A     6 A     6 B     7 A     7 B     8 B     8 A
 -6.843  -6.843  -1.384  -1.349  -1.223  -1.190  -1.174  -1.106
  9 A     9 B    10 A    10 B    11 A    11 B    12 A    12 B
 -0.993  -0.956  -0.910  -0.901  -0.890  -0.818  -0.748  -0.745
 13 A    13 B    14 A    14 B    15 A    15 B    16 B    16 A
 -0.739  -0.731  -0.721  -0.691  -0.665  -0.662  -0.641  -0.540
 17 A    17 B    18 A    19 A    18 B    19 B    20 A    20 B
 -0.533  -0.520
 21 A    22 A

          Ground-State Mulliken Net Atomic Charges

     Atom                 Charge (a.u.)    Spin (a.u.)
  --------------------------------------------------------
      1 S                     0.245815      -0.014019
      2 C                    -0.117552       0.013029
      3 C                    -0.158105       0.399749
      4 C                    -0.151669      -0.204123
      5 C                     0.016456       0.309219
      6 H                     0.198424       0.018361
      7 C                     0.016454       0.309220
      8 S                     0.245814      -0.014019
      9 C                    -0.151665      -0.204123
     10 C                    -0.117550       0.013029
     11 C                    -0.158107       0.399749
     12 H                     0.224680      -0.031712
     13 H                     0.241953       0.009496
     14 H                     0.224678      -0.031712
     15 H                     0.241953       0.009496
     16 H                     0.198423       0.018361
  --------------------------------------------------------
  Sum of atomic charges =     1.000000

                    Cartesian Multipole Moments
 -----------------------------------------------------------------
    Charge (ESU x 10^10)
                 4.8032
    Dipole Moment (Debye)
         X       0.0000      Y      -0.0000      Z       0.0013
       Tot       0.0013
    Quadrupole Moments (Debye-Ang)
        XX     -21.9822     XY       2.1581     YY     -55.8167
        XZ       0.0000     YZ       0.0000     ZZ     -73.5594

 Total job time:  3150.23s(wall), 15278.11s(cpu)
        *  Thank you very much for using Q-Chem.  Have a nice day.  *
