 Q-Chem 4.4, Q-Chem, Inc., Pleasanton, CA (2016)
 Q-Chem 4.4.1 for Intel X86 EM64T Linux

User input:
--------------------------------------------------------------
$molecule
 1  2
 S           1.81042700       -1.22909900       -0.13996800
 C           3.10211600       -0.18861200       -0.13982200
 C           2.74845300        1.15163900       -0.14006900
 C           1.39169900        1.31613900       -0.14029100
 C           0.68906700        0.11310500       -0.14015500
 H           0.90454800        2.27578700       -0.14040700
 C          -0.68906700       -0.11310500       -0.14015500
 S          -1.35522198       -1.54413613        0.61306961
 C          -1.71610363        0.66022392       -0.67694238
 C          -2.89397883       -1.07941729        0.20400064
 C          -2.95736191        0.12109195       -0.48600695
 H          -3.88131414        0.55389612       -0.81945878
 H           4.10439600       -0.57731800       -0.13934700
 H           3.47107900        1.94537000       -0.13983300
 H          -3.73122867       -1.69612075        0.47666770
 H          -1.53901270        1.58954778       -1.19000802
$end

$rem
         jobtype = opt
        exchange = hf
           basis = cc-pvtz
  max_scf_cycles = 100
      mem_static = 6200
       mem_total = 62000
          method = mp2
$end

$opt
CONSTRAINT
tors 4 5 7 9 30.0
ENDCONSTRAINT
$end

--------------------------------------------------------------

   22   -1101.3601087960      6.98E-09 Convergence criterion met
 Total energy in the final basis set = -1101.3601087960
        MP2         total energy =     -1103.1047066949 au
   15   -1101.3618782703      6.19E-09 Convergence criterion met
 Total energy in the final basis set = -1101.3618782703
        MP2         total energy =     -1103.1057854542 au
   16   -1101.3635307234      5.04E-09 Convergence criterion met
 Total energy in the final basis set = -1101.3635307234
        MP2         total energy =     -1103.1063360993 au
   15   -1101.3642591316      7.63E-09 Convergence criterion met
 Total energy in the final basis set = -1101.3642591316
        MP2         total energy =     -1103.1064357747 au
   13   -1101.3645023399      9.74E-09 Convergence criterion met
 Total energy in the final basis set = -1101.3645023399
        MP2         total energy =     -1103.1064706573 au

             Standard Nuclear Orientation (Angstroms)
    I     Atom           X                Y                Z
 ----------------------------------------------------------------
    1      S       1.6233821514    -0.2341058899     1.1489217066
    2      C       3.0479749972    -0.0154501973     0.3196855943
    3      C       2.8807699038     0.2339290094    -1.0303135813
    4      C       1.5608689872     0.2323852210    -1.3853505565
    5      C       0.6995802252    -0.0243025741    -0.3163600298
    6      H       1.2038186303     0.4286507963    -2.3806612169
    7      C      -0.6995802252     0.0243025741    -0.3163600298
    8      S      -1.6233821514     0.2341058899     1.1489217066
    9      C      -1.5608689872    -0.2323852210    -1.3853505565
   10      C      -3.0479749972     0.0154501973     0.3196855943
   11      C      -2.8807699038    -0.2339290094    -1.0303135813
   12      H      -3.7026988163    -0.4148556486    -1.6964587345
   13      H       3.9864488195    -0.0887154543     0.8387579996
   14      H       3.7026988163     0.4148556486    -1.6964587345
   15      H      -3.9864488195     0.0887154543     0.8387579996
   16      H      -1.2038186303    -0.4286507963    -2.3806612169
 ----------------------------------------------------------------

   10   -1101.3644911452      9.98E-09 Convergence criterion met
 Total energy in the final basis set = -1101.3644911452
        MP2         total energy =     -1103.1064705824 au
 Final energy is   -1103.10647058237
 **  OPTIMIZATION CONVERGED  **

             Orbital Energies (a.u.) and Symmetries
 --------------------------------------------------------------

 Alpha MOs, Unrestricted
 -- Occupied --
-92.160 -92.160 -11.476 -11.475 -11.452 -11.452 -11.435 -11.435
  1 A     1 B     2 A     2 B     3 B     3 A     4 B     4 A
-11.403 -11.403  -9.163  -9.163  -6.843  -6.843  -6.843  -6.843
  5 A     5 B     6 B     6 A     7 B     7 A     8 A     8 B
 -6.840  -6.840  -1.395  -1.364  -1.232  -1.192  -1.183  -1.129
  9 A     9 B    10 A    10 B    11 A    12 A    11 B    12 B
 -1.001  -0.961  -0.925  -0.905  -0.892  -0.822  -0.753  -0.752
 13 A    14 A    13 B    14 B    15 A    15 B    16 A    16 B
 -0.750  -0.736  -0.732  -0.710  -0.692  -0.669  -0.644  -0.582
 17 A    17 B    18 A    19 A    18 B    20 A    19 B    20 B
 -0.535  -0.526  -0.477
 21 A    21 B    22 A

 Beta MOs, Unrestricted
 -- Occupied --
-92.162 -92.162 -11.476 -11.475 -11.439 -11.439 -11.427 -11.427
  1 A     1 B     2 A     2 B     3 B     3 A     4 B     4 A
-11.410 -11.410  -9.164  -9.164  -6.845  -6.845  -6.844  -6.844
  5 B     5 A     6 B     6 A     7 B     7 A     8 B     8 A
 -6.844  -6.844  -1.383  -1.349  -1.222  -1.188  -1.174  -1.105
  9 B     9 A    10 A    10 B    11 A    12 A    11 B    12 B
 -0.993  -0.953  -0.914  -0.899  -0.889  -0.818  -0.752  -0.743
 13 A    14 A    13 B    14 B    15 A    15 B    16 A    17 A
 -0.733  -0.730  -0.721  -0.684  -0.669  -0.661  -0.643  -0.540
 16 B    18 A    17 B    18 B    19 A    20 A    19 B    20 B
 -0.533  -0.517
 21 A    21 B

          Ground-State Mulliken Net Atomic Charges

     Atom                 Charge (a.u.)    Spin (a.u.)
  --------------------------------------------------------
      1 S                     0.240131      -0.032845
      2 C                    -0.110536       0.023483
      3 C                    -0.169380       0.368728
      4 C                    -0.119190      -0.171831
      5 C                    -0.015949       0.315563
      6 H                     0.209119       0.017926
      7 C                    -0.015949       0.315563
      8 S                     0.240131      -0.032845
      9 C                    -0.119190      -0.171831
     10 C                    -0.110536       0.023483
     11 C                    -0.169380       0.368728
     12 H                     0.224760      -0.030467
     13 H                     0.241045       0.009442
     14 H                     0.224760      -0.030467
     15 H                     0.241045       0.009442
     16 H                     0.209119       0.017926
  --------------------------------------------------------
  Sum of atomic charges =     1.000000

                    Cartesian Multipole Moments
 -----------------------------------------------------------------
    Charge (ESU x 10^10)
                 4.8032
    Dipole Moment (Debye)
         X       0.0000      Y       0.0000      Z      -0.9683
       Tot       0.9683
    Quadrupole Moments (Debye-Ang)
        XX     -22.3887     XY       1.2309     YY     -72.8689
        XZ      -0.0000     YZ      -0.0000     ZZ     -56.1420

 Total job time:  18454.23s(wall), 90909.58s(cpu)
        *  Thank you very much for using Q-Chem.  Have a nice day.  *
