 Q-Chem 4.4, Q-Chem, Inc., Pleasanton, CA (2016)
 Q-Chem 4.4.1 for Intel X86 EM64T Linux

User input:
--------------------------------------------------------------
$molecule
 1  2
 S           1.81042700       -1.22909900       -0.13996800
 C           3.10211600       -0.18861200       -0.13982200
 C           2.74845300        1.15163900       -0.14006900
 C           1.39169900        1.31613900       -0.14029100
 C           0.68906700        0.11310500       -0.14015500
 H           0.90454800        2.27578700       -0.14040700
 C          -0.68906700       -0.11310500       -0.14015500
 S          -1.33724573       -1.65365244        0.37514859
 C          -1.72891444        0.73827090       -0.50738642
 C          -2.88576653       -1.12944893        0.09520627
 C          -2.96561676        0.17138281       -0.37682237
 H          -3.89752863        0.65267930       -0.60505745
 H           4.10439600       -0.57731800       -0.13934700
 H           3.47107900        1.94537000       -0.13983300
 H          -3.71651097       -1.78578505        0.28160461
 H          -1.56406825        1.74219312       -0.85839399
$end

$rem
         jobtype = opt
        exchange = hf
           basis = cc-pvtz
  max_scf_cycles = 100
      mem_static = 6200
       mem_total = 62000
          method = mp2
$end

$opt
CONSTRAINT
tors 4 5 7 9 20.0
ENDCONSTRAINT
$end

--------------------------------------------------------------

   22   -1101.3634490197      5.62E-09 Convergence criterion met
 Total energy in the final basis set = -1101.3634490197
        MP2         total energy =     -1103.1070382188 au
   15   -1101.3649230159      5.65E-09 Convergence criterion met
 Total energy in the final basis set = -1101.3649230159
        MP2         total energy =     -1103.1077312021 au
   15   -1101.3660858420      9.37E-09 Convergence criterion met
 Total energy in the final basis set = -1101.3660858420
        MP2         total energy =     -1103.1079924629 au
   14   -1101.3664506479      9.33E-09 Convergence criterion met
 Total energy in the final basis set = -1101.3664506479
        MP2         total energy =     -1103.1080326562 au
   13   -1101.3665603996      5.90E-09 Convergence criterion met
 Total energy in the final basis set = -1101.3665603996
        MP2         total energy =     -1103.1080513493 au
   12   -1101.3665084208      4.40E-09 Convergence criterion met
 Total energy in the final basis set = -1101.3665084208
        MP2         total energy =     -1103.1080524042 au

             Standard Nuclear Orientation (Angstroms)
    I     Atom           X                Y                Z
 ----------------------------------------------------------------
    1      S       1.6289223403    -0.1609352938     1.1598852201
    2      C       3.0512863594    -0.0137215001     0.3117306912
    3      C       2.8795022010     0.1565963193    -1.0503514987
    4      C       1.5579286224     0.1574773978    -1.3977517518
    5      C       0.6988952538    -0.0154208119    -0.3099674886
    6      H       1.1999882988     0.2927356392    -2.4026756656
    7      C      -0.6988952538     0.0154208119    -0.3099674886
    8      S      -1.6289223403     0.1609352938     1.1598852201
    9      C      -1.5579286224    -0.1574773978    -1.3977517518
   10      C      -3.0512863594     0.0137215001     0.3117306912
   11      C      -2.8795022010    -0.1565963193    -1.0503514987
   12      H      -3.7003588109    -0.2783343490    -1.7311111612
   13      H       3.9914392435    -0.0646900277     0.8303805737
   14      H       3.7003588109     0.2783343490    -1.7311111612
   15      H      -3.9914392435     0.0646900277     0.8303805737
   16      H      -1.1999882988    -0.2927356392    -2.4026756656
 ----------------------------------------------------------------

   10   -1101.3664686309      7.42E-09 Convergence criterion met
 Total energy in the final basis set = -1101.3664686309
        MP2         total energy =     -1103.1080523638 au
 Final energy is   -1103.10805236376
 **  OPTIMIZATION CONVERGED  **

             Orbital Energies (a.u.) and Symmetries
 --------------------------------------------------------------

 Alpha MOs, Unrestricted
 -- Occupied --
-92.160 -92.160 -11.476 -11.475 -11.452 -11.452 -11.434 -11.434
  1 A     1 B     2 A     2 B     3 B     3 A     4 B     4 A
-11.403 -11.403  -9.162  -9.162  -6.843  -6.843  -6.843  -6.843
  5 A     5 B     6 B     6 A     7 B     7 A     8 A     8 B
 -6.840  -6.840  -1.395  -1.364  -1.232  -1.193  -1.182  -1.129
  9 A     9 B    10 A    10 B    11 A    12 A    11 B    12 B
 -1.002  -0.962  -0.924  -0.905  -0.892  -0.822  -0.753  -0.752
 13 A    14 A    13 B    14 B    15 A    15 B    16 A    16 B
 -0.750  -0.736  -0.733  -0.710  -0.692  -0.669  -0.643  -0.584
 17 A    17 B    18 A    19 A    18 B    20 A    19 B    20 B
 -0.534  -0.528  -0.475
 21 A    21 B    22 A

 Beta MOs, Unrestricted
 -- Occupied --
-92.161 -92.161 -11.476 -11.475 -11.439 -11.439 -11.427 -11.427
  1 A     1 B     2 A     2 B     3 B     3 A     4 B     4 A
-11.410 -11.410  -9.164  -9.164  -6.845  -6.845  -6.844  -6.844
  5 B     5 A     6 B     6 A     7 A     7 B     8 B     8 A
 -6.844  -6.844  -1.383  -1.349  -1.223  -1.188  -1.174  -1.104
  9 B     9 A    10 A    10 B    11 A    12 A    11 B    12 B
 -0.993  -0.954  -0.914  -0.899  -0.890  -0.818  -0.753  -0.744
 13 A    14 A    13 B    14 B    15 A    15 B    16 A    17 A
 -0.732  -0.731  -0.721  -0.686  -0.670  -0.661  -0.642  -0.541
 16 B    18 A    17 B    18 B    19 A    20 A    19 B    20 B
 -0.532  -0.520
 21 A    21 B

          Ground-State Mulliken Net Atomic Charges

     Atom                 Charge (a.u.)    Spin (a.u.)
  --------------------------------------------------------
      1 S                     0.238296      -0.031008
      2 C                    -0.110983       0.029757
      3 C                    -0.171770       0.364374
      4 C                    -0.115435      -0.166785
      5 C                    -0.013440       0.307511
      6 H                     0.207345       0.017545
      7 C                    -0.013440       0.307511
      8 S                     0.238296      -0.031008
      9 C                    -0.115435      -0.166785
     10 C                    -0.110983       0.029757
     11 C                    -0.171770       0.364374
     12 H                     0.224427      -0.030391
     13 H                     0.241561       0.008998
     14 H                     0.224427      -0.030391
     15 H                     0.241561       0.008998
     16 H                     0.207345       0.017545
  --------------------------------------------------------
  Sum of atomic charges =     1.000000

                    Cartesian Multipole Moments
 -----------------------------------------------------------------
    Charge (ESU x 10^10)
                 4.8032
    Dipole Moment (Debye)
         X      -0.0000      Y      -0.0000      Z      -1.0175
       Tot       1.0175
    Quadrupole Moments (Debye-Ang)
        XX     -22.2880     XY       0.7766     YY     -73.2444
        XZ      -0.0000     YZ      -0.0000     ZZ     -55.8011

 Total job time:  22649.22s(wall), 108022.35s(cpu)
        *  Thank you very much for using Q-Chem.  Have a nice day.  *
