 Q-Chem 4.4, Q-Chem, Inc., Pleasanton, CA (2016)
 Q-Chem 4.4.1 for Intel X86 EM64T Linux

User input:
--------------------------------------------------------------
$molecule
 1  2
 S           1.81042700       -1.22909900       -0.13996800
 C           3.10211600       -0.18861200       -0.13982200
 C           2.74845300        1.15163900       -0.14006900
 C           1.39169900        1.31613900       -0.14029100
 C           0.68906700        0.11310500       -0.14015500
 H           0.90454800        2.27578700       -0.14040700
 C          -0.68906700       -0.11310500       -0.14015500
 S          -1.80672629        1.20655328        0.12118690
 C          -1.39433640       -1.30007120       -0.32640446
 C          -3.10041711        0.17826188       -0.02042723
 C          -2.75014667       -1.14132072       -0.25993236
 H          -3.47440066       -1.92513355       -0.37521854
 H           4.10439600       -0.57731800       -0.13934700
 H           3.47107900        1.94537000       -0.13983300
 H          -4.10134428        0.55872610        0.07470184
 H          -0.90970581       -2.24436422       -0.50440520
$end

$rem
         jobtype = opt
        exchange = hf
           basis = cc-pvtz
  max_scf_cycles = 100
      mem_static = 6200
       mem_total = 62000
          method = mp2
$end

$opt
CONSTRAINT
tors 4 5 7 9 170.0
ENDCONSTRAINT
$end

--------------------------------------------------------------

   22   -1101.3666506248      6.86E-09 Convergence criterion met
 Total energy in the final basis set = -1101.3666506248
        MP2         total energy =     -1103.1099816376 au
   10   -1101.3670479827      9.48E-09 Convergence criterion met
 Total energy in the final basis set = -1101.3670479827
        MP2         total energy =     -1103.1103725933 au
   12   -1101.3671314903      9.39E-09 Convergence criterion met
 Total energy in the final basis set = -1101.3671314903
        MP2         total energy =     -1103.1104377759 au
    9   -1101.3671497000      7.90E-09 Convergence criterion met
 Total energy in the final basis set = -1101.3671497000
        MP2         total energy =     -1103.1104408199 au

             Standard Nuclear Orientation (Angstroms)
    I     Atom           X                Y                Z
 ----------------------------------------------------------------
    1      S       1.8280868994    -1.2008564985     0.0749970876
    2      C       3.1042213402    -0.1451061198    -0.0141207533
    3      C       2.7309943166     1.1872908030    -0.0951775521
    4      C       1.3722285360     1.3332711052    -0.0785800339
    5      C       0.6874623083     0.1235349069     0.0149938561
    6      H       0.8708758615     2.2836419340    -0.1390062763
    7      C      -0.6874623083    -0.1235349069     0.0149938561
    8      S      -1.8280868994     1.2008564985     0.0749970876
    9      C      -1.3722285360    -1.3332711052    -0.0785800339
   10      C      -3.1042213402     0.1451061198    -0.0141207533
   11      C      -2.7309943166    -1.1872908030    -0.0951775521
   12      H      -3.4415423932    -1.9887066722    -0.1661599829
   13      H       4.1120245598    -0.5190929753    -0.0022649077
   14      H       3.4415423932     1.9887066722    -0.1661599829
   15      H      -4.1120245598     0.5190929753    -0.0022649077
   16      H      -0.8708758615    -2.2836419340    -0.1390062763
 ----------------------------------------------------------------

    9   -1101.3671545425      6.00E-09 Convergence criterion met
 Total energy in the final basis set = -1101.3671545425
        MP2         total energy =     -1103.1104412978 au
 Final energy is   -1103.11044129782
 **  OPTIMIZATION CONVERGED  **

             Orbital Energies (a.u.) and Symmetries
 --------------------------------------------------------------

 Alpha MOs, Unrestricted
 -- Occupied --
-92.160 -92.160 -11.476 -11.475 -11.452 -11.452 -11.434 -11.434
  1 A     1 B     2 A     2 B     3 B     3 A     4 B     4 A
-11.405 -11.405  -9.162  -9.162  -6.843  -6.843  -6.842  -6.842
  5 B     5 A     6 A     6 B     7 A     7 B     8 A     8 B
 -6.840  -6.840  -1.395  -1.365  -1.232  -1.199  -1.178  -1.129
  9 B     9 A    10 A    10 B    11 A    11 B    12 A    12 B
 -1.001  -0.966  -0.922  -0.905  -0.891  -0.823  -0.752  -0.750
 13 A    13 B    14 A    14 B    15 A    15 B    16 A    16 B
 -0.749  -0.743  -0.734  -0.711  -0.696  -0.666  -0.641  -0.585
 17 A    18 A    17 B    18 B    19 A    19 B    20 A    21 A
 -0.543  -0.520  -0.475
 20 B    22 A    21 B

 Beta MOs, Unrestricted
 -- Occupied --
-92.161 -92.161 -11.476 -11.475 -11.440 -11.440 -11.426 -11.426
  1 A     1 B     2 A     2 B     3 B     3 A     4 A     4 B
-11.412 -11.412  -9.164  -9.164  -6.845  -6.845  -6.844  -6.844
  5 B     5 A     6 A     6 B     7 A     7 B     8 B     8 A
 -6.843  -6.843  -1.384  -1.349  -1.222  -1.190  -1.174  -1.106
  9 A     9 B    10 A    10 B    11 A    11 B    12 A    12 B
 -0.993  -0.956  -0.910  -0.901  -0.890  -0.818  -0.748  -0.745
 13 A    13 B    14 A    14 B    15 A    15 B    16 B    16 A
 -0.739  -0.730  -0.721  -0.691  -0.665  -0.662  -0.641  -0.539
 17 A    17 B    18 A    19 A    18 B    19 B    20 A    20 B
 -0.533  -0.520
 21 A    22 A

          Ground-State Mulliken Net Atomic Charges

     Atom                 Charge (a.u.)    Spin (a.u.)
  --------------------------------------------------------
      1 S                     0.246742      -0.014618
      2 C                    -0.116404       0.012020
      3 C                    -0.159574       0.400203
      4 C                    -0.151537      -0.204536
      5 C                     0.014388       0.310699
      6 H                     0.199234       0.018396
      7 C                     0.014388       0.310699
      8 S                     0.246742      -0.014618
      9 C                    -0.151537      -0.204536
     10 C                    -0.116404       0.012020
     11 C                    -0.159574       0.400203
     12 H                     0.225174      -0.031745
     13 H                     0.241977       0.009582
     14 H                     0.225174      -0.031745
     15 H                     0.241977       0.009582
     16 H                     0.199234       0.018396
  --------------------------------------------------------
  Sum of atomic charges =     1.000000

                    Cartesian Multipole Moments
 -----------------------------------------------------------------
    Charge (ESU x 10^10)
                 4.8032
    Dipole Moment (Debye)
         X      -0.0000      Y      -0.0000      Z      -0.2039
       Tot       0.2039
    Quadrupole Moments (Debye-Ang)
        XX     -22.0014     XY       2.0861     YY     -55.9000
        XZ      -0.0000     YZ       0.0000     ZZ     -73.4725

 Total job time:  15644.47s(wall), 75989.51s(cpu)
        *  Thank you very much for using Q-Chem.  Have a nice day.  *
