 Q-Chem 4.4, Q-Chem, Inc., Pleasanton, CA (2016)
 Q-Chem 4.4.1 for Intel X86 EM64T Linux

User input:
--------------------------------------------------------------
$molecule
 1  2
 S           1.81042700       -1.22909900       -0.13996800
 C           3.10211600       -0.18861200       -0.13982200
 C           2.74845300        1.15163900       -0.14006900
 C           1.39169900        1.31613900       -0.14029100
 C           0.68906700        0.11310500       -0.14015500
 H           0.90454800        2.27578700       -0.14040700
 C          -0.68906700       -0.11310500       -0.14015500
 S          -1.79572567        1.13953445        0.37478273
 C          -1.40217613       -1.25230940       -0.50713083
 C          -3.09538094        0.14758013        0.09550416
 C          -2.75519087       -1.11059002       -0.37633153
 H          -3.48430210       -1.86481119       -0.60380578
 H           4.10439600       -0.57731800       -0.13934700
 H           3.47107900        1.94537000       -0.13983300
 H          -4.09230964        0.50368452        0.28253520
 H          -0.92503825       -2.15095471       -0.85786781
$end

$rem
         jobtype = opt
        exchange = hf
           basis = cc-pvtz
  max_scf_cycles = 100
      mem_static = 6200
       mem_total = 62000
          method = mp2
$end

$opt
CONSTRAINT
tors 4 5 7 9 160.0
ENDCONSTRAINT
$end

--------------------------------------------------------------

   22   -1101.3648578215      6.26E-09 Convergence criterion met
 Total energy in the final basis set = -1101.3648578215
        MP2         total energy =     -1103.1086302626 au
   11   -1101.3653769582      8.63E-09 Convergence criterion met
 Total energy in the final basis set = -1101.3653769582
        MP2         total energy =     -1103.1091249905 au
   14   -1101.3656975505      8.49E-09 Convergence criterion met
 Total energy in the final basis set = -1101.3656975505
        MP2         total energy =     -1103.1093900500 au
   12   -1101.3657869755      7.60E-09 Convergence criterion met
 Total energy in the final basis set = -1101.3657869755
        MP2         total energy =     -1103.1094115164 au
   10   -1101.3658135902      7.23E-09 Convergence criterion met
 Total energy in the final basis set = -1101.3658135902
        MP2         total energy =     -1103.1094180436 au

             Standard Nuclear Orientation (Angstroms)
    I     Atom           X                Y                Z
 ----------------------------------------------------------------
    1      S       1.8262381890    -1.1980481393     0.1482042169
    2      C       3.1032524299    -0.1546557637    -0.0290399676
    3      C       2.7317336763     1.1707452352    -0.1898476285
    4      C       1.3737608330     1.3226333149    -0.1563504325
    5      C       0.6879927035     0.1243324686     0.0300703657
    6      H       0.8728860955     2.2677375521    -0.2747918528
    7      C      -0.6879927035    -0.1243324686     0.0300703657
    8      S      -1.8262381890     1.1980481393     0.1482042169
    9      C      -1.3737608330    -1.3226333149    -0.1563504325
   10      C      -3.1032524299     0.1546557637    -0.0290399676
   11      C      -2.7317336763    -1.1707452352    -0.1898476285
   12      H      -3.4423865638    -1.9627874130    -0.3306056018
   13      H       4.1104750298    -0.5297697719    -0.0060941417
   14      H       3.4423865638     1.9627874130    -0.3306056018
   15      H      -4.1104750298     0.5297697719    -0.0060941417
   16      H      -0.8728860955    -2.2677375521    -0.2747918528
 ----------------------------------------------------------------

    8   -1101.3658158833      7.57E-09 Convergence criterion met
 Total energy in the final basis set = -1101.3658158833
        MP2         total energy =     -1103.1094173255 au
 Final energy is   -1103.10941732548
 **  OPTIMIZATION CONVERGED  **

             Orbital Energies (a.u.) and Symmetries
 --------------------------------------------------------------

 Alpha MOs, Unrestricted
 -- Occupied --
-92.160 -92.160 -11.476 -11.475 -11.452 -11.452 -11.434 -11.434
  1 A     1 B     2 A     2 B     3 B     3 A     4 B     4 A
-11.405 -11.405  -9.162  -9.162  -6.843  -6.843  -6.842  -6.842
  5 B     5 A     6 A     6 B     7 A     7 B     8 A     8 B
 -6.840  -6.840  -1.395  -1.365  -1.232  -1.199  -1.178  -1.129
  9 B     9 A    10 A    10 B    11 A    11 B    12 A    12 B
 -1.001  -0.965  -0.923  -0.905  -0.891  -0.823  -0.753  -0.750
 13 A    13 B    14 A    14 B    15 A    15 B    16 A    16 B
 -0.749  -0.742  -0.734  -0.711  -0.696  -0.666  -0.641  -0.584
 17 A    18 A    17 B    18 B    19 A    19 B    20 A    21 A
 -0.542  -0.520  -0.476
 20 B    22 A    21 B

 Beta MOs, Unrestricted
 -- Occupied --
-92.161 -92.161 -11.476 -11.475 -11.440 -11.440 -11.426 -11.426
  1 A     1 B     2 A     2 B     3 B     3 A     4 A     4 B
-11.412 -11.412  -9.163  -9.163  -6.844  -6.844  -6.844  -6.844
  5 B     5 A     6 A     6 B     7 A     7 B     8 A     8 B
 -6.843  -6.843  -1.384  -1.349  -1.222  -1.189  -1.174  -1.106
  9 A     9 B    10 A    10 B    11 A    11 B    12 A    12 B
 -0.993  -0.956  -0.911  -0.901  -0.890  -0.819  -0.748  -0.745
 13 A    13 B    14 A    14 B    15 A    15 B    16 B    16 A
 -0.739  -0.730  -0.721  -0.690  -0.665  -0.661  -0.642  -0.539
 17 A    17 B    18 A    19 A    18 B    19 B    20 A    20 B
 -0.533  -0.518
 21 A    22 A

          Ground-State Mulliken Net Atomic Charges

     Atom                 Charge (a.u.)    Spin (a.u.)
  --------------------------------------------------------
      1 S                     0.248453      -0.016211
      2 C                    -0.114691       0.008346
      3 C                    -0.161788       0.402427
      4 C                    -0.147333      -0.206628
      5 C                     0.007934       0.315502
      6 H                     0.200628       0.018558
      7 C                     0.007934       0.315502
      8 S                     0.248453      -0.016211
      9 C                    -0.147333      -0.206628
     10 C                    -0.114691       0.008346
     11 C                    -0.161788       0.402427
     12 H                     0.225028      -0.031861
     13 H                     0.241769       0.009868
     14 H                     0.225028      -0.031861
     15 H                     0.241769       0.009868
     16 H                     0.200628       0.018558
  --------------------------------------------------------
  Sum of atomic charges =     1.000000

                    Cartesian Multipole Moments
 -----------------------------------------------------------------
    Charge (ESU x 10^10)
                 4.8032
    Dipole Moment (Debye)
         X      -0.0000      Y      -0.0000      Z      -0.4068
       Tot       0.4068
    Quadrupole Moments (Debye-Ang)
        XX     -22.0451     XY       1.8769     YY     -56.1490
        XZ      -0.0000     YZ       0.0000     ZZ     -73.2189

 Total job time:  18365.82s(wall), 91040.49s(cpu)
        *  Thank you very much for using Q-Chem.  Have a nice day.  *
