 Q-Chem 4.4, Q-Chem, Inc., Pleasanton, CA (2016)
 Q-Chem 4.4.2 for Intel X86 EM64T Linux

User input:
--------------------------------------------------------------
$molecule
 1  2
 H           0.00000000        0.00000000        0.00000000
 H           0.66366000       -2.46828000       -0.59127000
 C           0.99103000       -0.39106000       -0.11652000
 C           1.36812000       -1.67442000       -0.42485000
 S           2.34669000        0.62586000        0.08638000
 C           2.76167000       -1.82175000       -0.50822000
 H           3.26291000       -2.73877000       -0.76199000
 C           3.44671000       -0.65043000       -0.26057000
 H           4.55645000        1.43902671        0.15704385
 C           4.88382000       -0.65043000       -0.26057000
 C           5.26091000        0.64090194        0.01245390
 S           6.23948000       -1.67253113       -0.43550939
 C           6.65446000        0.79046248        0.09175311
 H           7.15570000        1.71409653        0.32028213
 C           7.33950000       -0.38720773       -0.12368600
 C           8.77661000       -0.38720773       -0.12368600
 H           8.96041000       -0.80423071       -2.23050261
 C           9.46165000       -0.58754818       -1.30401884
 S           9.87663000       -0.09186944        1.16552508
 C          10.85520000       -0.51017141       -1.15345477
 C          11.23229000       -0.25370571        0.14126716
 H          11.55966000       -0.64452805       -1.95336551
 H          12.22332000       -0.15300770        0.53669769
$end

$rem
         jobtype = opt
        exchange = b3lyp
           basis = 6-31++g**
  max_scf_cycles = 150
      mem_static = 281
       mem_total = 2818
      sym_ignore = true
        symmetry = false
          thresh = 12
$end

$opt
CONSTRAINT
tors 13 15 16 18 -110.0
ENDCONSTRAINT
$end

--------------------------------------------------------------

   20   -1656.3579124214      6.66E-09 Convergence criterion met
 Total energy in the final basis set = -1656.3579124214
   17   -1656.3891302599      8.13E-09 Convergence criterion met
 Total energy in the final basis set = -1656.3891302599
   20   -1656.4018742943      8.82E-09 Convergence criterion met
 Total energy in the final basis set = -1656.4018742943
   15   -1656.4043961584      9.17E-09 Convergence criterion met
 Total energy in the final basis set = -1656.4043961584
   15   -1656.4049861500      7.01E-09 Convergence criterion met
 Total energy in the final basis set = -1656.4049861500
   15   -1656.4053380013      9.24E-09 Convergence criterion met
 Total energy in the final basis set = -1656.4053380013
   14   -1656.4054040883      5.34E-09 Convergence criterion met
 Total energy in the final basis set = -1656.4054040883
   13   -1656.4054207072      5.70E-09 Convergence criterion met
 Total energy in the final basis set = -1656.4054207072
   10   -1656.4054224550      9.87E-09 Convergence criterion met
 Total energy in the final basis set = -1656.4054224550

             Standard Nuclear Orientation (Angstroms)
    I     Atom           X                Y                Z
 ----------------------------------------------------------------
    1      H      -0.0867640021    -0.3655219250    -0.2458508635
    2      H       0.9230295047    -2.7209423353    -0.8743254405
    3      C       0.9641594587    -0.6235028968    -0.2864305110
    4      C       1.5182555344    -1.8546235288    -0.6130457794
    5      S       2.1452807514     0.5670963140     0.0814471890
    6      C       2.9172887314    -1.8401805349    -0.5677787452
    7      H       3.5358762506    -2.7019565010    -0.7923493033
    8      C       3.4490055849    -0.5889808136    -0.2042409402
    9      H       4.7117988468     1.9268749755     0.3894591017
   10      C       4.8072542232    -0.2224198851    -0.0627077670
   11      C       5.3347713700     1.0488614492     0.2616201243
   12      S       6.1092155083    -1.3911483163    -0.2538209894
   13      C       6.7179919802     1.0696219675     0.3558885356
   14      H       7.3028808182     1.9586670644     0.5608258901
   15      C       7.3188878847    -0.1841835014     0.1193970723
   16      C       8.7103630502    -0.4723275445    -0.0952246571
   17      H       8.7500073712    -1.2095876321    -2.1479553780
   18      C       9.3173198304    -0.8803459373    -1.2846840594
   19      S       9.9213412231     0.0967793481     1.0467678424
   20      C      10.7237943702    -0.7845120120    -1.2509585001
   21      C      11.1919747174    -0.2882412588    -0.0509695813
   22      H      11.3706035869    -1.0592958095    -2.0752738343
   23      H      12.2225434052    -0.1569308164     0.2534003942
 ----------------------------------------------------------------

    9   -1656.4054227126      8.35E-09 Convergence criterion met
 Total energy in the final basis set = -1656.4054227126
 Final energy is   -1656.40542271259
 **  OPTIMIZATION CONVERGED  **

                    Orbital Energies (a.u.)
 --------------------------------------------------------------

 Alpha MOs
 -- Occupied --
-89.077 -89.071 -89.056 -10.412 -10.411 -10.399 -10.387 -10.382
-10.369 -10.367 -10.365 -10.364 -10.352 -10.350 -10.334  -8.135
 -8.131  -8.115  -6.100  -6.096  -6.095  -6.092  -6.091  -6.088
 -6.079  -6.075  -6.072  -1.065  -1.042  -1.023  -0.944  -0.915
 -0.898  -0.886  -0.881  -0.842  -0.771  -0.748  -0.713  -0.700
 -0.690  -0.682  -0.669  -0.645  -0.608  -0.574  -0.572  -0.571
 -0.559  -0.555  -0.547  -0.540  -0.534  -0.520  -0.518  -0.507
 -0.496  -0.485  -0.448  -0.422  -0.411  -0.397  -0.390  -0.355

 Beta MOs
 -- Occupied --
-89.077 -89.071 -89.056 -10.409 -10.409 -10.398 -10.383 -10.381
-10.368 -10.366 -10.363 -10.362 -10.352 -10.348 -10.334  -8.136
 -8.131  -8.115  -6.100  -6.096  -6.095  -6.093  -6.091  -6.088
 -6.079  -6.075  -6.072  -1.061  -1.038  -1.020  -0.939  -0.913
 -0.896  -0.883  -0.878  -0.835  -0.767  -0.745  -0.710  -0.698
 -0.687  -0.680  -0.667  -0.643  -0.606  -0.570  -0.569  -0.563
 -0.556  -0.553  -0.541  -0.537  -0.533  -0.516  -0.510  -0.505
 -0.495  -0.485  -0.429  -0.420  -0.408  -0.393  -0.375

          Ground-State Mulliken Net Atomic Charges

     Atom                 Charge (a.u.)    Spin (a.u.)
  --------------------------------------------------------
      1 H                     0.245364      -0.012649
      2 H                     0.164811       0.001237
      3 C                     0.085376       0.248186
      4 C                    -0.341645      -0.036933
      5 S                    -0.061890      -0.028589
      6 C                     0.620476       0.139751
      7 H                     0.149529      -0.009302
      8 C                    -0.321726       0.055705
      9 H                     0.148473      -0.005558
     10 C                    -0.112862       0.161744
     11 C                    -0.078528       0.095021
     12 S                    -0.064233      -0.055295
     13 C                     0.139746       0.030496
     14 H                     0.175265      -0.003241
     15 C                    -0.076412       0.208276
     16 C                    -0.178742       0.037744
     17 H                     0.160235      -0.006335
     18 C                     0.169572       0.078490
     19 S                     0.163213      -0.020037
     20 C                    -0.387025      -0.019570
     21 C                     0.018375       0.146289
     22 H                     0.153426       0.002012
     23 H                     0.229201      -0.007442
  --------------------------------------------------------
  Sum of atomic charges =     1.000000

                    Cartesian Multipole Moments
 -----------------------------------------------------------------
    Charge (ESU x 10^10)
                 4.8032
    Dipole Moment (Debye)
         X      27.5281      Y      -1.9023      Z      -1.6025
       Tot      27.6403
    Quadrupole Moments (Debye-Ang)
        XX     138.7750     XY      -5.4426     YY     -93.5312
        XZ      -9.8778     YZ       7.3467     ZZ    -103.2228

 Total job time:  236.95s(wall), 251.34s(cpu)
        *  Thank you very much for using Q-Chem.  Have a nice day.  *
