 Q-Chem 4.4, Q-Chem, Inc., Pleasanton, CA (2016)
 Q-Chem 4.4.2 for Intel X86 EM64T Linux

User input:
--------------------------------------------------------------
$molecule
 1  2
 H           0.00000000        0.00000000        0.00000000
 H           0.66366000       -2.46828000       -0.59127000
 C           0.99103000       -0.39106000       -0.11652000
 C           1.36812000       -1.67442000       -0.42485000
 S           2.34669000        0.62586000        0.08638000
 C           2.76167000       -1.82175000       -0.50822000
 H           3.26291000       -2.73877000       -0.76199000
 C           3.44671000       -0.65043000       -0.26057000
 H           4.55645000        1.43902671        0.15704385
 C           4.88382000       -0.65043000       -0.26057000
 C           5.26091000        0.64090194        0.01245390
 S           6.23948000       -1.67253113       -0.43550939
 C           6.65446000        0.79046248        0.09175311
 H           7.15570000        1.71409653        0.32028213
 C           7.33950000       -0.38720773       -0.12368600
 C           8.77661000       -0.38720773       -0.12368600
 H           8.96041000       -1.42198521        1.75828637
 C           9.46165000       -0.99244136        0.90927778
 S           9.87663000        0.21523892       -1.30111877
 C          10.85520000       -0.95493469        0.74420218
 C          11.23229000       -0.31916760       -0.41246533
 H          11.55966000       -1.36618424        1.44333215
 H          12.22332000       -0.14212890       -0.78011012
$end

$rem
         jobtype = opt
        exchange = b3lyp
           basis = 6-31++g**
  max_scf_cycles = 150
      mem_static = 281
       mem_total = 2818
      sym_ignore = true
        symmetry = false
          thresh = 12
$end

$opt
CONSTRAINT
tors 13 15 16 18 110.0
ENDCONSTRAINT
$end

--------------------------------------------------------------

   20   -1656.3551217645      9.03E-09 Convergence criterion met
 Total energy in the final basis set = -1656.3551217645
   17   -1656.3863004903      7.57E-09 Convergence criterion met
 Total energy in the final basis set = -1656.3863004903
   20   -1656.3992538023      9.70E-09 Convergence criterion met
 Total energy in the final basis set = -1656.3992538023
   16   -1656.4028507098      6.27E-09 Convergence criterion met
 Total energy in the final basis set = -1656.4028507098
   16   -1656.4042014551      5.53E-09 Convergence criterion met
 Total energy in the final basis set = -1656.4042014551
   16   -1656.4052066117      7.44E-09 Convergence criterion met
 Total energy in the final basis set = -1656.4052066117
   15   -1656.4054570741      7.16E-09 Convergence criterion met
 Total energy in the final basis set = -1656.4054570741
   13   -1656.4055064322      8.26E-09 Convergence criterion met
 Total energy in the final basis set = -1656.4055064322
   12   -1656.4055137592      5.93E-09 Convergence criterion met
 Total energy in the final basis set = -1656.4055137592
   11   -1656.4055153021      5.44E-09 Convergence criterion met
 Total energy in the final basis set = -1656.4055153021

             Standard Nuclear Orientation (Angstroms)
    I     Atom           X                Y                Z
 ----------------------------------------------------------------
    1      H      -0.0842352647    -0.3669260341    -0.0684810331
    2      H       0.9026835230    -2.7914911293    -0.3999534691
    3      C       0.9641292841    -0.6300573060    -0.1340017520
    4      C       1.5063562565    -1.8969357613    -0.3078576588
    5      S       2.1566759814     0.5996934867    -0.0182787545
    6      C       2.9054486836    -1.8789636819    -0.3466803104
    7      H       3.5156399735    -2.7664412769    -0.4724490508
    8      C       3.4494089379    -0.5891071274    -0.2019127623
    9      H       4.7366865264     1.9538031938     0.1942707691
   10      C       4.8111388771    -0.2090517107    -0.1944150309
   11      C       5.3513761016     1.0857615601    -0.0154514992
   12      S       6.1018536545    -1.3766207099    -0.4539810488
   13      C       6.7351366050     1.1264083253    -0.0913406216
   14      H       7.3291265488     2.0210667560     0.0543227510
   15      C       7.3240731686    -0.1301266459    -0.3425579200
   16      C       8.7115624865    -0.4917417931    -0.2467540991
   17      H       8.7303918625    -1.9516445840     1.3745167007
   18      C       9.3064022233    -1.3240733834     0.7037589204
   19      S       9.9351331741     0.4582266152    -1.0800293191
   20      C      10.7134248268    -1.2335333469     0.7177091046
   21      C      11.1944201505    -0.3230294117    -0.2015187394
   22      H      11.3518837394    -1.8049098071     1.3805118965
   23      H      12.2281626797    -0.0936482375    -0.4269812131
 ----------------------------------------------------------------

   10   -1656.4055160444      4.64E-09 Convergence criterion met
 Total energy in the final basis set = -1656.4055160444
 Final energy is   -1656.40551604438
 **  OPTIMIZATION CONVERGED  **

                    Orbital Energies (a.u.)
 --------------------------------------------------------------

 Alpha MOs
 -- Occupied --
-89.077 -89.071 -89.056 -10.412 -10.411 -10.399 -10.386 -10.382
-10.369 -10.367 -10.365 -10.364 -10.352 -10.350 -10.334  -8.135
 -8.131  -8.115  -6.100  -6.096  -6.095  -6.092  -6.091  -6.088
 -6.079  -6.075  -6.072  -1.065  -1.042  -1.023  -0.944  -0.915
 -0.898  -0.886  -0.881  -0.842  -0.771  -0.748  -0.713  -0.700
 -0.690  -0.682  -0.669  -0.645  -0.608  -0.574  -0.572  -0.571
 -0.559  -0.555  -0.547  -0.540  -0.534  -0.520  -0.518  -0.507
 -0.496  -0.485  -0.448  -0.422  -0.411  -0.397  -0.390  -0.355

 Beta MOs
 -- Occupied --
-89.077 -89.071 -89.056 -10.409 -10.409 -10.398 -10.383 -10.381
-10.368 -10.366 -10.363 -10.362 -10.352 -10.348 -10.334  -8.136
 -8.131  -8.115  -6.100  -6.096  -6.095  -6.093  -6.091  -6.088
 -6.079  -6.075  -6.072  -1.061  -1.038  -1.020  -0.939  -0.913
 -0.896  -0.883  -0.878  -0.835  -0.767  -0.745  -0.710  -0.698
 -0.687  -0.680  -0.667  -0.643  -0.606  -0.570  -0.569  -0.563
 -0.556  -0.553  -0.541  -0.537  -0.533  -0.517  -0.510  -0.505
 -0.495  -0.485  -0.429  -0.420  -0.408  -0.393  -0.375

          Ground-State Mulliken Net Atomic Charges

     Atom                 Charge (a.u.)    Spin (a.u.)
  --------------------------------------------------------
      1 H                     0.245424      -0.012637
      2 H                     0.164861       0.001237
      3 C                     0.085407       0.248090
      4 C                    -0.342490      -0.036971
      5 S                    -0.061728      -0.028541
      6 C                     0.624005       0.139747
      7 H                     0.149403      -0.009309
      8 C                    -0.325787       0.055603
      9 H                     0.148390      -0.005574
     10 C                    -0.112485       0.161913
     11 C                    -0.072575       0.094573
     12 S                    -0.067755      -0.055514
     13 C                     0.133952       0.030424
     14 H                     0.175257      -0.003266
     15 C                    -0.075119       0.208724
     16 C                    -0.170721       0.037627
     17 H                     0.160067      -0.006358
     18 C                     0.163571       0.078865
     19 S                     0.162980      -0.020088
     20 C                    -0.383952      -0.019614
     21 C                     0.016570       0.146506
     22 H                     0.153532       0.002022
     23 H                     0.229195      -0.007459
  --------------------------------------------------------
  Sum of atomic charges =     1.000000

                    Cartesian Multipole Moments
 -----------------------------------------------------------------
    Charge (ESU x 10^10)
                 4.8032
    Dipole Moment (Debye)
         X      27.5387      Y      -2.3091      Z      -0.0066
       Tot      27.6354
    Quadrupole Moments (Debye-Ang)
        XX     138.9530     XY      -9.0814     YY     -89.9187
        XZ       2.8702     YZ      -1.4635     ZZ    -107.0830

 Total job time:  263.36s(wall), 279.11s(cpu)
        *  Thank you very much for using Q-Chem.  Have a nice day.  *
