 Q-Chem 4.4, Q-Chem, Inc., Pleasanton, CA (2016)
 Q-Chem 4.4.2 for Intel X86 EM64T Linux

User input:
--------------------------------------------------------------
$molecule
 1  2
 H           0.00000000        0.00000000        0.00000000
 H           0.66366000       -2.46828000       -0.59127000
 C           0.99103000       -0.39106000       -0.11652000
 C           1.36812000       -1.67442000       -0.42485000
 S           2.34669000        0.62586000        0.08638000
 C           2.76167000       -1.82175000       -0.50822000
 H           3.26291000       -2.73877000       -0.76199000
 C           3.44671000       -0.65043000       -0.26057000
 H           4.55645000        1.43902671        0.15704385
 C           4.88382000       -0.65043000       -0.26057000
 C           5.26091000        0.64090194        0.01245390
 S           6.23948000       -1.67253113       -0.43550939
 C           6.65446000        0.79046248        0.09175311
 H           7.15570000        1.71409653        0.32028213
 C           7.33950000       -0.38720773       -0.12368600
 C           8.77661000       -0.38720773       -0.12368600
 H           8.96041000        0.02981525        1.98313062
 C           9.46165000       -0.18686727        1.05664685
 S           9.87663000       -0.68254602       -1.41289707
 C          10.85520000       -0.26424405        0.90608278
 C          11.23229000       -0.52070975       -0.38863915
 H          11.55966000       -0.12988740        1.70599352
 H          12.22332000       -0.62140775       -0.78406968
$end

$rem
         jobtype = opt
        exchange = b3lyp
           basis = 6-31++g**
  max_scf_cycles = 150
      mem_static = 281
       mem_total = 2818
      sym_ignore = true
        symmetry = false
          thresh = 12
$end

$opt
CONSTRAINT
tors 13 15 16 18 70.0
ENDCONSTRAINT
$end

--------------------------------------------------------------

   20   -1656.3592895696      6.72E-09 Convergence criterion met
 Total energy in the final basis set = -1656.3592895696
   17   -1656.3895808462      7.53E-09 Convergence criterion met
 Total energy in the final basis set = -1656.3895808462
   17   -1656.4015490602      6.44E-09 Convergence criterion met
 Total energy in the final basis set = -1656.4015490602
   16   -1656.4037639953      5.89E-09 Convergence criterion met
 Total energy in the final basis set = -1656.4037639953
   15   -1656.4042651888      6.99E-09 Convergence criterion met
 Total energy in the final basis set = -1656.4042651888
   15   -1656.4045979209      8.82E-09 Convergence criterion met
 Total energy in the final basis set = -1656.4045979209
   20   -1656.4047095574      7.32E-09 Convergence criterion met
 Total energy in the final basis set = -1656.4047095574
   13   -1656.4047346621      5.83E-09 Convergence criterion met
 Total energy in the final basis set = -1656.4047346621
   11   -1656.4047372917      6.78E-09 Convergence criterion met
 Total energy in the final basis set = -1656.4047372917

             Standard Nuclear Orientation (Angstroms)
    I     Atom           X                Y                Z
 ----------------------------------------------------------------
    1      H      -0.0996528717    -0.5578240603    -0.3505171741
    2      H       1.0522365233    -2.8700836763    -0.8879850457
    3      C       0.9643673808    -0.7589657618    -0.3573054339
    4      C       1.5927341191    -1.9660627646    -0.6355569445
    5      S       2.0690759967     0.5041082555     0.0065362608
    6      C       2.9871183175    -1.8739271436    -0.5553047933
    7      H       3.6575342381    -2.7055209584    -0.7413832279
    8      C       3.4405509749    -0.5862335903    -0.2138872444
    9      H       4.5516602177     2.0103773946     0.3355074027
   10      C       4.7728970716    -0.1422745478    -0.0499357437
   11      C       5.2236853882     1.1641497709     0.2491258662
   12      S       6.1383873899    -1.2458704578    -0.1763807256
   13      C       6.6011790457     1.2591896560     0.3746870081
   14      H       7.1362999800     2.1830467094     0.5606979455
   15      C       7.2734263436     0.0304185880     0.2059349538
   16      C       8.6915812206    -0.1658902336     0.0674692782
   17      H       9.4349512989     0.4836744699     2.0112955936
   18      C       9.6550093104     0.0044505540     1.0639372131
   19      S       9.3637306860    -1.0836797023    -1.2774044338
   20      C      10.9153427576    -0.5250904217     0.7183692242
   21      C      10.9114050610    -1.1284149009    -0.5234228013
   22      H      11.7921074316    -0.4726581067     1.3522602789
   23      H      11.7512521187    -1.5645049923    -1.0494479867
 ----------------------------------------------------------------

    9   -1656.4047376876      7.82E-09 Convergence criterion met
 Total energy in the final basis set = -1656.4047376876
 Final energy is   -1656.40473768760
 **  OPTIMIZATION CONVERGED  **

                    Orbital Energies (a.u.)
 --------------------------------------------------------------

 Alpha MOs
 -- Occupied --
-89.077 -89.071 -89.056 -10.411 -10.411 -10.399 -10.386 -10.381
-10.369 -10.366 -10.365 -10.364 -10.352 -10.348 -10.334  -8.135
 -8.130  -8.115  -6.100  -6.096  -6.094  -6.092  -6.091  -6.088
 -6.080  -6.076  -6.072  -1.065  -1.042  -1.023  -0.944  -0.914
 -0.897  -0.887  -0.879  -0.842  -0.771  -0.747  -0.711  -0.703
 -0.690  -0.681  -0.668  -0.643  -0.609  -0.574  -0.571  -0.570
 -0.559  -0.555  -0.547  -0.539  -0.532  -0.519  -0.517  -0.509
 -0.496  -0.486  -0.448  -0.422  -0.411  -0.396  -0.390  -0.355

 Beta MOs
 -- Occupied --
-89.077 -89.071 -89.056 -10.409 -10.408 -10.398 -10.383 -10.381
-10.368 -10.365 -10.364 -10.362 -10.352 -10.347 -10.335  -8.136
 -8.130  -8.115  -6.100  -6.096  -6.095  -6.093  -6.091  -6.088
 -6.080  -6.076  -6.073  -1.060  -1.038  -1.020  -0.938  -0.912
 -0.896  -0.883  -0.878  -0.835  -0.767  -0.743  -0.708  -0.700
 -0.688  -0.679  -0.666  -0.641  -0.607  -0.570  -0.569  -0.561
 -0.557  -0.553  -0.541  -0.536  -0.531  -0.515  -0.509  -0.507
 -0.495  -0.485  -0.429  -0.420  -0.407  -0.393  -0.375

          Ground-State Mulliken Net Atomic Charges

     Atom                 Charge (a.u.)    Spin (a.u.)
  --------------------------------------------------------
      1 H                     0.244182      -0.012709
      2 H                     0.165736       0.001236
      3 C                     0.065382       0.247786
      4 C                    -0.260141      -0.036452
      5 S                    -0.049310      -0.026770
      6 C                     0.500305       0.137972
      7 H                     0.146394      -0.009173
      8 C                    -0.316212       0.050633
      9 H                     0.149059      -0.005773
     10 C                     0.003557       0.176518
     11 C                    -0.082988       0.072415
     12 S                    -0.185223      -0.051967
     13 C                     0.047843       0.035178
     14 H                     0.181482      -0.003215
     15 C                    -0.490212       0.210050
     16 C                     0.466314       0.042148
     17 H                     0.172990      -0.007267
     18 C                    -0.038504       0.076384
     19 S                     0.100621      -0.015987
     20 C                    -0.204127      -0.020248
     21 C                    -0.008913       0.144841
     22 H                     0.155780       0.001520
     23 H                     0.235984      -0.007121
  --------------------------------------------------------
  Sum of atomic charges =     1.000000

                    Cartesian Multipole Moments
 -----------------------------------------------------------------
    Charge (ESU x 10^10)
                 4.8032
    Dipole Moment (Debye)
         X      27.4716      Y      -2.1535      Z      -0.1494
       Tot      27.5563
    Quadrupole Moments (Debye-Ang)
        XX     136.6427     XY      -9.9695     YY     -91.2551
        XZ       4.8416     YZ       7.1175     ZZ    -103.7274

 Total job time:  243.59s(wall), 257.88s(cpu)
        *  Thank you very much for using Q-Chem.  Have a nice day.  *
