 Q-Chem 4.4, Q-Chem, Inc., Pleasanton, CA (2016)
 Q-Chem 4.4.2 for Intel X86 EM64T Linux

User input:
--------------------------------------------------------------
$molecule
 1  2
 H           0.00000000        0.00000000        0.00000000
 H           0.66366000       -2.46828000       -0.59127000
 C           0.99103000       -0.39106000       -0.11652000
 C           1.36812000       -1.67442000       -0.42485000
 S           2.34669000        0.62586000        0.08638000
 C           2.76167000       -1.82175000       -0.50822000
 H           3.26291000       -2.73877000       -0.76199000
 C           3.44671000       -0.65043000       -0.26057000
 H           4.55645000        1.43902671        0.15704385
 C           4.88382000       -0.65043000       -0.26057000
 C           5.26091000        0.64090194        0.01245390
 S           6.23948000       -1.67253113       -0.43550939
 C           6.65446000        0.79046248        0.09175311
 H           7.15570000        1.71409653        0.32028213
 C           7.33950000       -0.38720773       -0.12368600
 C           8.77661000       -0.38720773       -0.12368600
 H           8.96041000        0.95865023       -1.79737975
 C           9.46165000        0.38820333       -1.03585901
 S           9.87663000       -1.18496091        0.93124516
 C          10.85520000        0.32260139       -0.87980425
 C          11.23229000       -0.50436017        0.14889109
 H          11.55966000        0.84900578       -1.49690013
 H          12.22332000       -0.74255011        0.48020808
$end

$rem
         jobtype = opt
        exchange = b3lyp
           basis = 6-31++g**
  max_scf_cycles = 150
      mem_static = 281
       mem_total = 2818
      sym_ignore = true
        symmetry = false
          thresh = 12
$end

$opt
CONSTRAINT
tors 13 15 16 18 -60.0
ENDCONSTRAINT
$end

--------------------------------------------------------------

   20   -1656.3605627099      6.81E-09 Convergence criterion met
 Total energy in the final basis set = -1656.3605627099
   17   -1656.3908233673      7.33E-09 Convergence criterion met
 Total energy in the final basis set = -1656.3908233673
   17   -1656.4030709909      5.86E-09 Convergence criterion met
 Total energy in the final basis set = -1656.4030709909
   16   -1656.4063842020      9.07E-09 Convergence criterion met
 Total energy in the final basis set = -1656.4063842020
   16   -1656.4073780912      6.05E-09 Convergence criterion met
 Total energy in the final basis set = -1656.4073780912
   15   -1656.4079883510      9.39E-09 Convergence criterion met
 Total energy in the final basis set = -1656.4079883510
   19   -1656.4081562699      9.75E-09 Convergence criterion met
 Total energy in the final basis set = -1656.4081562699
   13   -1656.4081823775      6.20E-09 Convergence criterion met
 Total energy in the final basis set = -1656.4081823775
   12   -1656.4081864445      4.66E-09 Convergence criterion met
 Total energy in the final basis set = -1656.4081864445
   11   -1656.4081879858      5.04E-09 Convergence criterion met
 Total energy in the final basis set = -1656.4081879858
   19   -1656.4081510840      9.65E-09 Convergence criterion met
 Total energy in the final basis set = -1656.4081510840

             Standard Nuclear Orientation (Angstroms)
    I     Atom           X                Y                Z
 ----------------------------------------------------------------
    1      H      -0.1080002078    -0.6198234609    -0.1319687006
    2      H       1.0536703326    -2.9681886494    -0.4458094184
    3      C       0.9572130481    -0.8087300749    -0.1778948135
    4      C       1.5904884611    -2.0330591383    -0.3432429558
    5      S       2.0582859958     0.5018985706    -0.0391866140
    6      C       2.9858638429    -1.9161768108    -0.3570863083
    7      H       3.6590217046    -2.7585751319    -0.4706098386
    8      C       3.4345567302    -0.5922796137    -0.2010024318
    9      H       4.5310796354     2.0280341351     0.2597696489
   10      C       4.7657982429    -0.1160732829    -0.1629069842
   11      C       5.2102758303     1.2098104193     0.0495999165
   12      S       6.1385209623    -1.1878755318    -0.4161210398
   13      C       6.5882477436     1.3464920174     0.0051119891
   14      H       7.1161334747     2.2753905351     0.1864498388
   15      C       7.2698548606     0.1401593547    -0.2660078747
   16      C       8.6834278801    -0.0781149460    -0.1930642439
   17      H       9.4459307388     1.4714722783    -1.5287690687
   18      C       9.6638059543     0.5930897113    -0.9317315308
   19      S       9.3654766551    -1.5136513675     0.5635167894
   20      C      10.9364182666    -0.0018256047    -0.8361848475
   21      C      10.9301107089    -1.1391733734    -0.0510524468
   22      H      11.8253063833     0.3794798060    -1.3239025441
   23      H      11.7753927560    -1.7574292313     0.2235362688
 ----------------------------------------------------------------

   11   -1656.4081507365      6.41E-09 Convergence criterion met
 Total energy in the final basis set = -1656.4081507365
 Final energy is   -1656.40815073646
 **  OPTIMIZATION CONVERGED  **

                    Orbital Energies (a.u.)
 --------------------------------------------------------------

 Alpha MOs
 -- Occupied --
-89.076 -89.069 -89.059 -10.411 -10.410 -10.396 -10.384 -10.384
-10.369 -10.368 -10.366 -10.362 -10.351 -10.349 -10.337  -8.135
 -8.128  -8.118  -6.099  -6.096  -6.092  -6.091  -6.089  -6.085
 -6.082  -6.078  -6.075  -1.064  -1.041  -1.024  -0.944  -0.914
 -0.896  -0.889  -0.881  -0.841  -0.771  -0.747  -0.710  -0.705
 -0.689  -0.679  -0.669  -0.643  -0.608  -0.573  -0.570  -0.570
 -0.559  -0.553  -0.547  -0.541  -0.532  -0.519  -0.518  -0.510
 -0.495  -0.488  -0.449  -0.422  -0.409  -0.400  -0.392  -0.352

 Beta MOs
 -- Occupied --
-89.076 -89.069 -89.059 -10.408 -10.408 -10.396 -10.383 -10.381
-10.367 -10.367 -10.365 -10.360 -10.350 -10.350 -10.338  -8.135
 -8.128  -8.118  -6.099  -6.096  -6.092  -6.092  -6.089  -6.085
 -6.082  -6.078  -6.075  -1.060  -1.037  -1.021  -0.938  -0.912
 -0.894  -0.885  -0.879  -0.834  -0.767  -0.744  -0.707  -0.703
 -0.687  -0.678  -0.668  -0.641  -0.607  -0.569  -0.568  -0.561
 -0.557  -0.552  -0.543  -0.537  -0.531  -0.516  -0.508  -0.508
 -0.494  -0.487  -0.430  -0.419  -0.406  -0.396  -0.376

          Ground-State Mulliken Net Atomic Charges

     Atom                 Charge (a.u.)    Spin (a.u.)
  --------------------------------------------------------
      1 H                     0.242482      -0.012343
      2 H                     0.164503       0.001319
      3 C                     0.057573       0.240671
      4 C                    -0.252893      -0.037344
      5 S                    -0.046182      -0.025139
      6 C                     0.503166       0.140045
      7 H                     0.145144      -0.009078
      8 C                    -0.266826       0.044263
      9 H                     0.150452      -0.005074
     10 C                    -0.096656       0.170717
     11 C                    -0.065697       0.072705
     12 S                    -0.199671      -0.054920
     13 C                     0.142471       0.046839
     14 H                     0.183337      -0.003791
     15 C                    -0.043631       0.203672
     16 C                    -0.076535       0.020551
     17 H                     0.174854      -0.007854
     18 C                     0.073560       0.104890
     19 S                     0.083627      -0.020854
     20 C                    -0.275484      -0.030433
     21 C                     0.009450       0.167952
     22 H                     0.156190       0.001679
     23 H                     0.236765      -0.008471
  --------------------------------------------------------
  Sum of atomic charges =     1.000000

                    Cartesian Multipole Moments
 -----------------------------------------------------------------
    Charge (ESU x 10^10)
                 4.8032
    Dipole Moment (Debye)
         X      27.9797      Y      -1.6928      Z      -1.2870
       Tot      28.0604
    Quadrupole Moments (Debye-Ang)
        XX     143.7075     XY      -4.5505     YY     -87.5082
        XZ     -10.2201     YZ      -0.5658     ZZ    -107.8241

 Total job time:  292.46s(wall), 310.21s(cpu)
        *  Thank you very much for using Q-Chem.  Have a nice day.  *
