 Q-Chem 4.4, Q-Chem, Inc., Pleasanton, CA (2016)
 Q-Chem 4.4.2 for Intel X86 EM64T Linux

User input:
--------------------------------------------------------------
$molecule
 1  2
 H           0.00000000        0.00000000        0.00000000
 H           0.66366000       -2.46828000       -0.59127000
 C           0.99103000       -0.39106000       -0.11652000
 C           1.36812000       -1.67442000       -0.42485000
 S           2.34669000        0.62586000        0.08638000
 C           2.76167000       -1.82175000       -0.50822000
 H           3.26291000       -2.73877000       -0.76199000
 C           3.44671000       -0.65043000       -0.26057000
 H           4.55645000        1.43902671        0.15704385
 C           4.88382000       -0.65043000       -0.26057000
 C           5.26091000        0.64090194        0.01245390
 S           6.23948000       -1.67253113       -0.43550939
 C           6.65446000        0.79046248        0.09175311
 H           7.15570000        1.71409653        0.32028213
 C           7.33950000       -0.38720773       -0.12368600
 C           8.77661000       -0.38720773       -0.12368600
 H           8.96041000       -1.80176853       -1.73973121
 C           9.46165000       -1.15087407       -1.04571400
 S           9.87663000        0.51316827        0.84513440
 C          10.85520000       -1.00858178       -0.95401007
 C          11.23229000       -0.13911501        0.03901916
 H          11.55966000       -1.52489342       -1.57957478
 H          12.22332000        0.14580729        0.33112304
$end

$rem
         jobtype = opt
        exchange = b3lyp
           basis = 6-31++g**
  max_scf_cycles = 150
      mem_static = 281
       mem_total = 2818
      sym_ignore = true
        symmetry = false
          thresh = 12
$end

$opt
CONSTRAINT
tors 13 15 16 18 -140.0
ENDCONSTRAINT
$end

--------------------------------------------------------------

   19   -1656.3676079895      6.47E-09 Convergence criterion met
 Total energy in the final basis set = -1656.3676079895
   17   -1656.3993707162      5.89E-09 Convergence criterion met
 Total energy in the final basis set = -1656.3993707162
   16   -1656.4121167046      7.78E-09 Convergence criterion met
 Total energy in the final basis set = -1656.4121167046
   15   -1656.4139121423      6.90E-09 Convergence criterion met
 Total energy in the final basis set = -1656.4139121423
   14   -1656.4140922066      4.04E-09 Convergence criterion met
 Total energy in the final basis set = -1656.4140922066
   13   -1656.4141497272      6.87E-09 Convergence criterion met
 Total energy in the final basis set = -1656.4141497272
   12   -1656.4141582488      8.71E-09 Convergence criterion met
 Total energy in the final basis set = -1656.4141582488
   11   -1656.4141608443      7.24E-09 Convergence criterion met
 Total energy in the final basis set = -1656.4141608443

             Standard Nuclear Orientation (Angstroms)
    I     Atom           X                Y                Z
 ----------------------------------------------------------------
    1      H      -0.0878970338    -0.3889038636    -0.2160852850
    2      H       0.9252282999    -2.7561280441    -0.7914449869
    3      C       0.9632577332    -0.6446396430    -0.2611637628
    4      C       1.5187944530    -1.8802177662    -0.5600982892
    5      S       2.1442934497     0.5595734343     0.0619245073
    6      C       2.9198316750    -1.8589312023    -0.5296564878
    7      H       3.5387677873    -2.7246724484    -0.7375942174
    8      C       3.4494165918    -0.5984638647    -0.2054082692
    9      H       4.7019350057     1.9318126447     0.3390004819
   10      C       4.8080127677    -0.2214782914    -0.0866504278
   11      C       5.3313680266     1.0594397000     0.2053555760
   12      S       6.1119542892    -1.3861627771    -0.2762964304
   13      C       6.7141461853     1.0951321641     0.2695660932
   14      H       7.2894126053     1.9956588266     0.4500955114
   15      C       7.3235576759    -0.1571473301     0.0320132338
   16      C       8.7095281989    -0.4415880209    -0.1134770756
   17      H       8.7575467828    -1.9821881826    -1.6667886723
   18      C       9.3204904450    -1.3247970628    -1.0137002678
   19      S       9.9265419371     0.5225208646     0.7197276170
   20      C      10.7228603657    -1.2369705586    -1.0088862746
   21      C      11.1916504300    -0.2877573817    -0.1167115035
   22      H      11.3734185608    -1.8322539259    -1.6378907561
   23      H      12.2227637676    -0.0398334509     0.1014578258
 ----------------------------------------------------------------

    9   -1656.4141612714      6.59E-09 Convergence criterion met
 Total energy in the final basis set = -1656.4141612714
 Final energy is   -1656.41416127135
 **  OPTIMIZATION CONVERGED  **

                    Orbital Energies (a.u.)
 --------------------------------------------------------------

 Alpha MOs
 -- Occupied --
-89.075 -89.067 -89.062 -10.410 -10.410 -10.393 -10.388 -10.381
-10.374 -10.367 -10.366 -10.360 -10.355 -10.347 -10.341  -8.134
 -8.126  -8.121  -6.098  -6.094  -6.090  -6.090  -6.086  -6.085
 -6.083  -6.081  -6.078  -1.064  -1.041  -1.026  -0.944  -0.914
 -0.894  -0.889  -0.883  -0.842  -0.771  -0.749  -0.712  -0.703
 -0.688  -0.679  -0.672  -0.646  -0.606  -0.572  -0.571  -0.570
 -0.559  -0.552  -0.547  -0.545  -0.535  -0.522  -0.519  -0.509
 -0.493  -0.490  -0.452  -0.422  -0.407  -0.403  -0.394  -0.349

 Beta MOs
 -- Occupied --
-89.075 -89.067 -89.062 -10.408 -10.407 -10.393 -10.387 -10.378
-10.371 -10.366 -10.365 -10.358 -10.353 -10.347 -10.342  -8.134
 -8.126  -8.121  -6.098  -6.095  -6.091  -6.090  -6.086  -6.085
 -6.083  -6.081  -6.078  -1.059  -1.037  -1.022  -0.939  -0.912
 -0.892  -0.888  -0.880  -0.835  -0.768  -0.745  -0.710  -0.700
 -0.686  -0.677  -0.671  -0.644  -0.605  -0.569  -0.569  -0.562
 -0.557  -0.550  -0.545  -0.538  -0.533  -0.519  -0.508  -0.507
 -0.492  -0.489  -0.434  -0.419  -0.403  -0.399  -0.378

          Ground-State Mulliken Net Atomic Charges

     Atom                 Charge (a.u.)    Spin (a.u.)
  --------------------------------------------------------
      1 H                     0.241602      -0.011830
      2 H                     0.164140       0.001400
      3 C                     0.064562       0.227835
      4 C                    -0.259346      -0.035391
      5 S                    -0.036606      -0.021773
      6 C                     0.463155       0.136128
      7 H                     0.141464      -0.009044
      8 C                    -0.180456       0.034522
      9 H                     0.144471      -0.005080
     10 C                    -0.111815       0.172506
     11 C                    -0.102745       0.072426
     12 S                    -0.198543      -0.058891
     13 C                     0.174240       0.059783
     14 H                     0.162144      -0.003842
     15 C                    -0.138323       0.168596
     16 C                    -0.206359       0.036227
     17 H                     0.156818      -0.008260
     18 C                     0.408798       0.111096
     19 S                     0.084968      -0.019181
     20 C                    -0.421830      -0.028902
     21 C                     0.061375       0.190341
     22 H                     0.156071       0.001595
     23 H                     0.232217      -0.010260
  --------------------------------------------------------
  Sum of atomic charges =     1.000000

                    Cartesian Multipole Moments
 -----------------------------------------------------------------
    Charge (ESU x 10^10)
                 4.8032
    Dipole Moment (Debye)
         X      28.6768      Y      -2.2989      Z      -1.4840
       Tot      28.8070
    Quadrupole Moments (Debye-Ang)
        XX     154.0021     XY      -9.9044     YY     -90.2297
        XZ      -9.6158     YZ       8.2658     ZZ    -106.2900

 Total job time:  202.13s(wall), 213.80s(cpu)
        *  Thank you very much for using Q-Chem.  Have a nice day.  *
