 Q-Chem 4.4, Q-Chem, Inc., Pleasanton, CA (2016)
 Q-Chem 4.4.2 for Intel X86 EM64T Linux

User input:
--------------------------------------------------------------
$molecule
 1  2
 H           0.00000000        0.00000000        0.00000000
 H           0.66366000       -2.46828000       -0.59127000
 C           0.99103000       -0.39106000       -0.11652000
 C           1.36812000       -1.67442000       -0.42485000
 S           2.34669000        0.62586000        0.08638000
 C           2.76167000       -1.82175000       -0.50822000
 H           3.26291000       -2.73877000       -0.76199000
 C           3.44671000       -0.65043000       -0.26057000
 H           4.55645000        1.43902671        0.15704385
 C           4.88382000       -0.65043000       -0.26057000
 C           5.26091000        0.64090194        0.01245390
 S           6.23948000       -1.67253113       -0.43550939
 C           6.65446000        0.79046248        0.09175311
 H           7.15570000        1.71409653        0.32028213
 C           7.33950000       -0.38720773       -0.12368600
 C           8.77661000       -0.38720773       -0.12368600
 H           8.96041000       -1.73306568        1.55000775
 C           9.46165000       -1.16261878        0.78848702
 S           9.87663000        0.41054546       -1.17861716
 C          10.85520000       -1.09701684        0.63243225
 C          11.23229000       -0.27005528       -0.39626308
 H          11.55966000       -1.62342124        1.24952813
 H          12.22332000       -0.03186535       -0.72758007
$end

$rem
         jobtype = opt
        exchange = b3lyp
           basis = 6-31++g**
  max_scf_cycles = 150
      mem_static = 281
       mem_total = 2818
      sym_ignore = true
        symmetry = false
          thresh = 12
$end

$opt
CONSTRAINT
tors 13 15 16 18 120.0
ENDCONSTRAINT
$end

--------------------------------------------------------------

   20   -1656.3586738916      6.95E-09 Convergence criterion met
 Total energy in the final basis set = -1656.3586738916
   17   -1656.3899875853      7.28E-09 Convergence criterion met
 Total energy in the final basis set = -1656.3899875853
   16   -1656.4031111078      8.71E-09 Convergence criterion met
 Total energy in the final basis set = -1656.4031111078
   20   -1656.4069702575      7.64E-09 Convergence criterion met
 Total energy in the final basis set = -1656.4069702575
   15   -1656.4081205453      9.50E-09 Convergence criterion met
 Total energy in the final basis set = -1656.4081205453
   16   -1656.4087881057      5.81E-09 Convergence criterion met
 Total energy in the final basis set = -1656.4087881057
   14   -1656.4088998444      6.79E-09 Convergence criterion met
 Total energy in the final basis set = -1656.4088998444
   13   -1656.4089231280      6.53E-09 Convergence criterion met
 Total energy in the final basis set = -1656.4089231280
   11   -1656.4089269193      7.41E-09 Convergence criterion met
 Total energy in the final basis set = -1656.4089269193
   10   -1656.4089287255      9.14E-09 Convergence criterion met
 Total energy in the final basis set = -1656.4089287255
   10   -1656.4089298213      5.62E-09 Convergence criterion met
 Total energy in the final basis set = -1656.4089298213

             Standard Nuclear Orientation (Angstroms)
    I     Atom           X                Y                Z
 ----------------------------------------------------------------
    1      H      -0.0830336270    -0.3779876637    -0.0687671668
    2      H       0.9096571506    -2.7986698819    -0.4102829287
    3      C       0.9658051878    -0.6386644726    -0.1355995852
    4      C       1.5108804563    -1.9027772985    -0.3151875260
    5      S       2.1558982690     0.5932797843    -0.0155035646
    6      C       2.9105645973    -1.8810895697    -0.3552810364
    7      H       3.5223993563    -2.7669044889    -0.4848819558
    8      C       3.4512382493    -0.5913801689    -0.2054168052
    9      H       4.7319366012     1.9507264933     0.2154042709
   10      C       4.8124114388    -0.2075292849    -0.1948915192
   11      C       5.3495835961     1.0862913145    -0.0001551080
   12      S       6.1049916105    -1.3696183718    -0.4666953828
   13      C       6.7330149270     1.1311277266    -0.0688177984
   14      H       7.3222805795     2.0265895811     0.0905069927
   15      C       7.3263952760    -0.1226000030    -0.3281643449
   16      C       8.7115133993    -0.4750173325    -0.2536975419
   17      H       8.7239417036    -2.1685926324     1.1248709053
   18      C       9.3027116379    -1.4465283309     0.5600404594
   19      S       9.9409035635     0.5838615776    -0.9361702552
   20      C      10.7077933452    -1.3604098751     0.5935463234
   21      C      11.1934262146    -0.3207829424    -0.1766976474
   22      H      11.3440731386    -2.0242796830     1.1660954604
   23      H      12.2284933288    -0.0582811173    -0.3552178054
 ----------------------------------------------------------------

   10   -1656.4089307395      7.52E-09 Convergence criterion met
 Total energy in the final basis set = -1656.4089307395
 Final energy is   -1656.40893073946
 **  OPTIMIZATION CONVERGED  **

                    Orbital Energies (a.u.)
 --------------------------------------------------------------

 Alpha MOs
 -- Occupied --
-89.076 -89.069 -89.058 -10.411 -10.411 -10.396 -10.384 -10.384
-10.369 -10.368 -10.366 -10.362 -10.352 -10.350 -10.337  -8.135
 -8.129  -8.117  -6.099  -6.095  -6.093  -6.091  -6.089  -6.086
 -6.081  -6.078  -6.074  -1.064  -1.041  -1.024  -0.944  -0.915
 -0.896  -0.887  -0.882  -0.842  -0.771  -0.748  -0.712  -0.702
 -0.689  -0.681  -0.670  -0.645  -0.607  -0.573  -0.571  -0.570
 -0.559  -0.553  -0.547  -0.542  -0.535  -0.520  -0.518  -0.508
 -0.494  -0.488  -0.449  -0.422  -0.410  -0.400  -0.392  -0.352

 Beta MOs
 -- Occupied --
-89.076 -89.069 -89.058 -10.408 -10.408 -10.396 -10.384 -10.381
-10.367 -10.367 -10.366 -10.360 -10.351 -10.350 -10.337  -8.135
 -8.129  -8.117  -6.099  -6.096  -6.093  -6.092  -6.089  -6.086
 -6.081  -6.078  -6.075  -1.060  -1.038  -1.021  -0.938  -0.912
 -0.894  -0.885  -0.879  -0.835  -0.767  -0.745  -0.710  -0.699
 -0.687  -0.679  -0.668  -0.643  -0.606  -0.570  -0.569  -0.563
 -0.556  -0.552  -0.542  -0.538  -0.533  -0.517  -0.509  -0.506
 -0.494  -0.487  -0.430  -0.419  -0.406  -0.396  -0.376

          Ground-State Mulliken Net Atomic Charges

     Atom                 Charge (a.u.)    Spin (a.u.)
  --------------------------------------------------------
      1 H                     0.244897      -0.012246
      2 H                     0.163784       0.001289
      3 C                     0.085823       0.240344
      4 C                    -0.339648      -0.036873
      5 S                    -0.067415      -0.026547
      6 C                     0.620499       0.139174
      7 H                     0.148702      -0.009228
      8 C                    -0.308742       0.047503
      9 H                     0.146402      -0.005470
     10 C                    -0.089800       0.167455
     11 C                    -0.141082       0.084288
     12 S                    -0.103520      -0.056955
     13 C                     0.157365       0.045053
     14 H                     0.170677      -0.003655
     15 C                     0.004641       0.190131
     16 C                    -0.204835       0.035264
     17 H                     0.158297      -0.007166
     18 C                     0.198945       0.093082
     19 S                     0.146347      -0.020521
     20 C                    -0.419725      -0.023192
     21 C                     0.044046       0.165001
     22 H                     0.154130       0.001880
     23 H                     0.230213      -0.008610
  --------------------------------------------------------
  Sum of atomic charges =     1.000000

                    Cartesian Multipole Moments
 -----------------------------------------------------------------
    Charge (ESU x 10^10)
                 4.8032
    Dipole Moment (Debye)
         X      28.0224      Y      -2.4240      Z      -0.0712
       Tot      28.1272
    Quadrupole Moments (Debye-Ang)
        XX     145.2789     XY     -10.4578     YY     -88.7411
        XZ       2.2511     YZ      -1.2246     ZZ    -108.1430

 Total job time:  274.04s(wall), 290.06s(cpu)
        *  Thank you very much for using Q-Chem.  Have a nice day.  *
