 Q-Chem 4.4, Q-Chem, Inc., Pleasanton, CA (2016)
 Q-Chem 4.4.2 for Intel X86 EM64T Linux

User input:
--------------------------------------------------------------
$molecule
 1  2
 H           0.00000000        0.00000000        0.00000000
 H           0.66366000       -2.46828000       -0.59127000
 C           0.99103000       -0.39106000       -0.11652000
 C           1.36812000       -1.67442000       -0.42485000
 S           2.34669000        0.62586000        0.08638000
 C           2.76167000       -1.82175000       -0.50822000
 H           3.26291000       -2.73877000       -0.76199000
 C           3.44671000       -0.65043000       -0.26057000
 H           4.55645000        1.43902671        0.15704385
 C           4.88382000       -0.65043000       -0.26057000
 C           5.26091000        0.64090194        0.01245390
 S           6.23948000       -1.67253113       -0.43550939
 C           6.65446000        0.79046248        0.09175311
 H           7.15570000        1.71409653        0.32028213
 C           7.33950000       -0.38720773       -0.12368600
 C           8.77661000       -0.38720773       -0.12368600
 H           8.96041000        1.71960889       -0.54070898
 C           9.46165000        0.79312512       -0.32402645
 S           9.87663000       -1.67641880        0.17165229
 C          10.85520000        0.64256104       -0.24664968
 C          11.23229000       -0.65216088        0.00981602
 H          11.55966000        1.44247179       -0.38100632
 H          12.22332000       -1.04759141        0.11051403
$end

$rem
         jobtype = opt
        exchange = b3lyp
           basis = 6-31++g**
  max_scf_cycles = 150
      mem_static = 281
       mem_total = 2818
      sym_ignore = true
        symmetry = false
          thresh = 12
$end

$opt
CONSTRAINT
tors 13 15 16 18 -20.0
ENDCONSTRAINT
$end

--------------------------------------------------------------

   18   -1656.3705728851      9.74E-09 Convergence criterion met
 Total energy in the final basis set = -1656.3705728851
   16   -1656.4024854706      8.28E-09 Convergence criterion met
 Total energy in the final basis set = -1656.4024854706
   17   -1656.4144871149      4.11E-09 Convergence criterion met
 Total energy in the final basis set = -1656.4144871149
   15   -1656.4161233341      8.23E-09 Convergence criterion met
 Total energy in the final basis set = -1656.4161233341
   14   -1656.4163398786      5.27E-09 Convergence criterion met
 Total energy in the final basis set = -1656.4163398786
   14   -1656.4164450226      4.32E-09 Convergence criterion met
 Total energy in the final basis set = -1656.4164450226
   12   -1656.4164689003      9.24E-09 Convergence criterion met
 Total energy in the final basis set = -1656.4164689003
   12   -1656.4164768063      5.45E-09 Convergence criterion met
 Total energy in the final basis set = -1656.4164768063
   10   -1656.4164787515      7.92E-09 Convergence criterion met
 Total energy in the final basis set = -1656.4164787515

             Standard Nuclear Orientation (Angstroms)
    I     Atom           X                Y                Z
 ----------------------------------------------------------------
    1      H      -0.1240930261    -0.5757244391    -0.1980415626
    2      H       1.0056926076    -2.9251546599    -0.6042333460
    3      C       0.9383329464    -0.7811162740    -0.2341237302
    4      C       1.5547156241    -2.0051479398    -0.4451148760
    5      S       2.0584294711     0.5021997575    -0.0122454565
    6      C       2.9534535591    -1.9111131873    -0.4271013704
    7      H       3.6146110649    -2.7584210124    -0.5711291976
    8      C       3.4193908839    -0.6054842191    -0.2011309370
    9      H       4.5424432173     1.9968843063     0.2830914795
   10      C       4.7572486509    -0.1516326831    -0.1220970172
   11      C       5.2165855244     1.1653418564     0.1132231943
   12      S       6.1176650902    -1.2444190557    -0.3357667483
   13      C       6.5945621338     1.2813584994     0.1220892948
   14      H       7.1199096944     2.2093541878     0.3111683418
   15      C       7.2688491595     0.0587495323    -0.1107451495
   16      C       8.6724049057    -0.1451175532    -0.1049377953
   17      H       9.4313001796     1.8953892330    -0.3676029946
   18      C       9.6607071898     0.8421276134    -0.2590714810
   19      S       9.4131429208    -1.7391579346    -0.0086695855
   20      C      10.9633281023     0.3215718901    -0.2845086562
   21      C      10.9859163237    -1.0575101983    -0.1572505855
   22      H      11.8585660459     0.9210718920    -0.3957633258
   23      H      11.8537177309    -1.7041927916    -0.1294059852
 ----------------------------------------------------------------

   10   -1656.4164795606      5.42E-09 Convergence criterion met
 Total energy in the final basis set = -1656.4164795606
 Final energy is   -1656.41647956057
 **  OPTIMIZATION CONVERGED  **

                    Orbital Energies (a.u.)
 --------------------------------------------------------------

 Alpha MOs
 -- Occupied --
-89.074 -89.065 -89.064 -10.410 -10.409 -10.391 -10.390 -10.378
-10.377 -10.366 -10.366 -10.358 -10.358 -10.345 -10.343  -8.134
 -8.124  -8.123  -6.098  -6.094  -6.090  -6.088  -6.088  -6.084
 -6.084  -6.081  -6.080  -1.064  -1.041  -1.026  -0.944  -0.914
 -0.893  -0.892  -0.883  -0.841  -0.772  -0.748  -0.710  -0.707
 -0.689  -0.677  -0.673  -0.643  -0.608  -0.572  -0.571  -0.570
 -0.561  -0.550  -0.548  -0.544  -0.534  -0.521  -0.519  -0.511
 -0.494  -0.488  -0.455  -0.422  -0.407  -0.404  -0.395  -0.346

 Beta MOs
 -- Occupied --
-89.075 -89.065 -89.064 -10.407 -10.407 -10.391 -10.390 -10.375
-10.374 -10.365 -10.365 -10.356 -10.356 -10.345 -10.344  -8.134
 -8.124  -8.123  -6.098  -6.095  -6.091  -6.088  -6.088  -6.085
 -6.084  -6.081  -6.081  -1.059  -1.037  -1.022  -0.939  -0.912
 -0.891  -0.890  -0.881  -0.833  -0.768  -0.745  -0.708  -0.705
 -0.687  -0.675  -0.672  -0.641  -0.606  -0.570  -0.568  -0.562
 -0.559  -0.548  -0.546  -0.537  -0.533  -0.519  -0.511  -0.508
 -0.493  -0.488  -0.437  -0.419  -0.402  -0.400  -0.379

          Ground-State Mulliken Net Atomic Charges

     Atom                 Charge (a.u.)    Spin (a.u.)
  --------------------------------------------------------
      1 H                     0.241520      -0.011423
      2 H                     0.162941       0.001456
      3 C                     0.057062       0.222175
      4 C                    -0.220023      -0.037089
      5 S                    -0.032596      -0.019522
      6 C                     0.492503       0.138021
      7 H                     0.146298      -0.008965
      8 C                    -0.214387       0.025765
      9 H                     0.144275      -0.004628
     10 C                    -0.075559       0.183064
     11 C                    -0.088202       0.049283
     12 S                    -0.381745      -0.062044
     13 C                     0.178390       0.058340
     14 H                     0.148146      -0.004500
     15 C                    -0.023519       0.179027
     16 C                    -0.177261       0.019363
     17 H                     0.139111      -0.009174
     18 C                     0.286677       0.145698
     19 S                     0.049760      -0.026854
     20 C                    -0.311930      -0.049177
     21 C                     0.076976       0.220630
     22 H                     0.160476       0.002152
     23 H                     0.241088      -0.011598
  --------------------------------------------------------
  Sum of atomic charges =     1.000000

                    Cartesian Multipole Moments
 -----------------------------------------------------------------
    Charge (ESU x 10^10)
                 4.8032
    Dipole Moment (Debye)
         X      29.0188      Y      -1.3929      Z      -0.8428
       Tot      29.0644
    Quadrupole Moments (Debye-Ang)
        XX     158.3884     XY      -1.7620     YY     -85.9623
        XZ      -4.6597     YZ       2.5682     ZZ    -110.5342

 Total job time:  222.11s(wall), 235.44s(cpu)
        *  Thank you very much for using Q-Chem.  Have a nice day.  *
