 Q-Chem 4.4, Q-Chem, Inc., Pleasanton, CA (2016)
 Q-Chem 4.4.2 for Intel X86 EM64T Linux

User input:
--------------------------------------------------------------
$molecule
 1  2
 H           0.00000000        0.00000000        0.00000000
 H           0.66366000       -2.46828000       -0.59127000
 C           0.99103000       -0.39106000       -0.11652000
 C           1.36812000       -1.67442000       -0.42485000
 S           2.34669000        0.62586000        0.08638000
 C           2.76167000       -1.82175000       -0.50822000
 H           3.26291000       -2.73877000       -0.76199000
 C           3.44671000       -0.65043000       -0.26057000
 H           4.55645000        1.43902671        0.15704385
 C           4.88382000       -0.65043000       -0.26057000
 C           5.26091000        0.64090194        0.01245390
 S           6.23948000       -1.67253113       -0.43550939
 C           6.65446000        0.79046248        0.09175311
 H           7.15570000        1.71409653        0.32028213
 C           7.33950000       -0.38720773       -0.12368600
 C           8.77661000       -0.38720773       -0.12368600
 H           8.96041000        0.64756975       -2.00565836
 C           9.46165000        0.21802591       -1.15664977
 S           9.87663000       -0.98965437        1.05374678
 C          10.85520000        0.18051924       -0.99157417
 C          11.23229000       -0.45524785        0.16509334
 H          11.55966000        0.59176879       -1.69070414
 H          12.22332000       -0.63228655        0.53273813
$end

$rem
         jobtype = opt
        exchange = b3lyp
           basis = 6-31++g**
  max_scf_cycles = 150
      mem_static = 281
       mem_total = 2818
      sym_ignore = true
        symmetry = false
          thresh = 12
$end

$opt
CONSTRAINT
tors 13 15 16 18 -70.0
ENDCONSTRAINT
$end

--------------------------------------------------------------

   20   -1656.3566106589      5.61E-09 Convergence criterion met
 Total energy in the final basis set = -1656.3566106589
   20   -1656.3869834374      6.02E-09 Convergence criterion met
 Total energy in the final basis set = -1656.3869834374
   17   -1656.3991965566      5.64E-09 Convergence criterion met
 Total energy in the final basis set = -1656.3991965566
   17   -1656.4024178625      3.40E-09 Convergence criterion met
 Total energy in the final basis set = -1656.4024178625
   20   -1656.4035294487      7.36E-09 Convergence criterion met
 Total energy in the final basis set = -1656.4035294487
   16   -1656.4043641657      7.25E-09 Convergence criterion met
 Total energy in the final basis set = -1656.4043641657
   20   -1656.4046200300      7.29E-09 Convergence criterion met
 Total energy in the final basis set = -1656.4046200300
   13   -1656.4046706831      8.70E-09 Convergence criterion met
 Total energy in the final basis set = -1656.4046706831
   12   -1656.4046767427      7.55E-09 Convergence criterion met
 Total energy in the final basis set = -1656.4046767427
   11   -1656.4046782614      7.02E-09 Convergence criterion met
 Total energy in the final basis set = -1656.4046782614

             Standard Nuclear Orientation (Angstroms)
    I     Atom           X                Y                Z
 ----------------------------------------------------------------
    1      H      -0.1015562988    -0.6282250952    -0.0894676979
    2      H       1.0631699463    -2.9689836799    -0.4462789893
    3      C       0.9638167599    -0.8130474400    -0.1483648670
    4      C       1.5988984867    -2.0342247261    -0.3350222025
    5      S       2.0620440721     0.4985474401    -0.0008946029
    6      C       2.9931210798    -1.9136636541    -0.3587904491
    7      H       3.6678648129    -2.7521745056    -0.4901073915
    8      C       3.4399533523    -0.5899801817    -0.1883326496
    9      H       4.5311419589     2.0337668521     0.2586941879
   10      C       4.7697890582    -0.1107490193    -0.1614821971
   11      C       5.2106347072     1.2177833928     0.0405534498
   12      S       6.1448039113    -1.1773075945    -0.4260512404
   13      C       6.5880333452     1.3599455713    -0.0255874380
   14      H       7.1157785504     2.2914303998     0.1424386906
   15      C       7.2706746691     0.1575191904    -0.3051451710
   16      C       8.6899457142    -0.0650542719    -0.2313606829
   17      H       9.4396195513     1.2452745717    -1.8044754212
   18      C       9.6585605390     0.4611114343    -1.0884069819
   19      S       9.3635414761    -1.3949031125     0.7057924677
   20      C      10.9236881296    -0.1435031993    -0.9385294541
   21      C      10.9184962141    -1.1499878604     0.0064243190
   22      H      11.8046943915     0.1414362326    -1.5006968431
   23      H      11.7601655728    -1.7360547546     0.3531245744
 ----------------------------------------------------------------

   10   -1656.4046788467      5.94E-09 Convergence criterion met
 Total energy in the final basis set = -1656.4046788467
 Final energy is   -1656.40467884666
 **  OPTIMIZATION CONVERGED  **

                    Orbital Energies (a.u.)
 --------------------------------------------------------------

 Alpha MOs
 -- Occupied --
-89.077 -89.071 -89.056 -10.411 -10.411 -10.399 -10.387 -10.381
-10.369 -10.366 -10.365 -10.364 -10.352 -10.348 -10.334  -8.136
 -8.130  -8.115  -6.100  -6.096  -6.095  -6.092  -6.091  -6.088
 -6.080  -6.076  -6.072  -1.065  -1.042  -1.023  -0.944  -0.914
 -0.897  -0.887  -0.879  -0.842  -0.771  -0.747  -0.711  -0.702
 -0.690  -0.681  -0.667  -0.643  -0.609  -0.574  -0.571  -0.570
 -0.559  -0.555  -0.547  -0.539  -0.532  -0.519  -0.517  -0.509
 -0.496  -0.486  -0.448  -0.422  -0.411  -0.396  -0.390  -0.355

 Beta MOs
 -- Occupied --
-89.077 -89.071 -89.056 -10.409 -10.408 -10.398 -10.383 -10.380
-10.368 -10.365 -10.363 -10.362 -10.352 -10.347 -10.334  -8.136
 -8.131  -8.115  -6.100  -6.096  -6.095  -6.093  -6.091  -6.088
 -6.080  -6.076  -6.072  -1.060  -1.038  -1.020  -0.938  -0.912
 -0.896  -0.883  -0.878  -0.835  -0.767  -0.743  -0.708  -0.700
 -0.688  -0.679  -0.666  -0.641  -0.607  -0.570  -0.569  -0.561
 -0.557  -0.553  -0.541  -0.536  -0.531  -0.516  -0.509  -0.506
 -0.496  -0.485  -0.428  -0.420  -0.408  -0.393  -0.375

          Ground-State Mulliken Net Atomic Charges

     Atom                 Charge (a.u.)    Spin (a.u.)
  --------------------------------------------------------
      1 H                     0.244461      -0.012686
      2 H                     0.165766       0.001225
      3 C                     0.068115       0.248224
      4 C                    -0.265779      -0.036578
      5 S                    -0.051530      -0.026911
      6 C                     0.509445       0.138246
      7 H                     0.146761      -0.009178
      8 C                    -0.319820       0.050988
      9 H                     0.148762      -0.005840
     10 C                     0.003166       0.176220
     11 C                    -0.086977       0.072150
     12 S                    -0.181436      -0.051889
     13 C                     0.040899       0.034529
     14 H                     0.181185      -0.003140
     15 C                    -0.463046       0.212282
     16 C                     0.442133       0.041136
     17 H                     0.173107      -0.007143
     18 C                    -0.035565       0.075980
     19 S                     0.101992      -0.015782
     20 C                    -0.202818      -0.020210
     21 C                    -0.010457       0.143931
     22 H                     0.155953       0.001505
     23 H                     0.235683      -0.007060
  --------------------------------------------------------
  Sum of atomic charges =     1.000000

                    Cartesian Multipole Moments
 -----------------------------------------------------------------
    Charge (ESU x 10^10)
                 4.8032
    Dipole Moment (Debye)
         X      27.4473      Y      -1.8179      Z      -1.3463
       Tot      27.5404
    Quadrupole Moments (Debye-Ang)
        XX     136.4373     XY      -5.6522     YY     -88.3313
        XZ     -10.9491     YZ      -0.6646     ZZ    -106.6376

 Total job time:  274.32s(wall), 291.36s(cpu)
        *  Thank you very much for using Q-Chem.  Have a nice day.  *
