 Q-Chem 4.4, Q-Chem, Inc., Pleasanton, CA (2016)
 Q-Chem 4.4.2 for Intel X86 EM64T Linux

User input:
--------------------------------------------------------------
$molecule
 1  2
 H           0.00000000        0.00000000        0.00000000
 H           0.66366000       -2.46828000       -0.59127000
 C           0.99103000       -0.39106000       -0.11652000
 C           1.36812000       -1.67442000       -0.42485000
 S           2.34669000        0.62586000        0.08638000
 C           2.76167000       -1.82175000       -0.50822000
 H           3.26291000       -2.73877000       -0.76199000
 C           3.44671000       -0.65043000       -0.26057000
 H           4.55645000        1.43902671        0.15704385
 C           4.88382000       -0.65043000       -0.26057000
 C           5.26091000        0.64090194        0.01245390
 S           6.23948000       -1.67253113       -0.43550939
 C           6.65446000        0.79046248        0.09175311
 H           7.15570000        1.71409653        0.32028213
 C           7.33950000       -0.38720773       -0.12368600
 C           8.77661000       -0.38720773       -0.12368600
 H           8.96041000        1.28648602        1.22217196
 C           9.46165000        0.52496529        0.65172506
 S           9.87663000       -1.44213889       -0.92143918
 C          10.85520000        0.36891052        0.58612312
 C          11.23229000       -0.65978481       -0.24083844
 H          11.55966000        0.98600640        1.11252751
 H          12.22332000       -0.99110180       -0.47902837
$end

$rem
         jobtype = opt
        exchange = b3lyp
           basis = 6-31++g**
  max_scf_cycles = 150
      mem_static = 281
       mem_total = 2818
      sym_ignore = true
        symmetry = false
          thresh = 12
$end

$opt
CONSTRAINT
tors 13 15 16 18 30.0
ENDCONSTRAINT
$end

--------------------------------------------------------------

   19   -1656.3705720389      4.48E-09 Convergence criterion met
 Total energy in the final basis set = -1656.3705720389
   17   -1656.4021113833      6.02E-09 Convergence criterion met
 Total energy in the final basis set = -1656.4021113833
   17   -1656.4138600852      4.64E-09 Convergence criterion met
 Total energy in the final basis set = -1656.4138600852
   15   -1656.4151988435      7.12E-09 Convergence criterion met
 Total energy in the final basis set = -1656.4151988435
   13   -1656.4153145018      9.71E-09 Convergence criterion met
 Total energy in the final basis set = -1656.4153145018
   13   -1656.4153454230      5.19E-09 Convergence criterion met
 Total energy in the final basis set = -1656.4153454230
   11   -1656.4153512541      8.00E-09 Convergence criterion met
 Total energy in the final basis set = -1656.4153512541
   10   -1656.4153532434      8.41E-09 Convergence criterion met
 Total energy in the final basis set = -1656.4153532434

             Standard Nuclear Orientation (Angstroms)
    I     Atom           X                Y                Z
 ----------------------------------------------------------------
    1      H      -0.1207672963    -0.5548341893    -0.2713130331
    2      H       1.0067506808    -2.8878956693    -0.7675594454
    3      C       0.9413532505    -0.7636612644    -0.2957057121
    4      C       1.5565201885    -1.9797774402    -0.5526554205
    5      S       2.0620685733     0.5016928410     0.0096831535
    6      C       2.9548726085    -1.8937587949    -0.5039904844
    7      H       3.6153834754    -2.7355049450    -0.6800222065
    8      C       3.4219215821    -0.6025124081    -0.2075760470
    9      H       4.5524718611     1.9935566689     0.2971153890
   10      C       4.7601285944    -0.1599384045    -0.0844001072
   11      C       5.2228250822     1.1495944899     0.1819159582
   12      S       6.1171130194    -1.2684061185    -0.2386497380
   13      C       6.6010610104     1.2496590534     0.2522880363
   14      H       7.1324610549     2.1797355419     0.4138951720
   15      C       7.2696587099     0.0188789989     0.0525079277
   16      C       8.6743254747    -0.1757503726    -0.0242498927
   17      H       9.4273141639     1.4679940765     1.2124556149
   18      C       9.6584133074     0.5890625402     0.6222506974
   19      S       9.4062085390    -1.5619603685    -0.8250598116
   20      C      10.9554286209     0.0790871570     0.4521216982
   21      C      10.9746265007    -1.0766122941    -0.3104938474
   22      H      11.8477482875     0.5278586235     0.8711762313
   23      H      11.8389927106    -1.6549039218    -0.6114508727
 ----------------------------------------------------------------

    9   -1656.4153537717      7.33E-09 Convergence criterion met
 Total energy in the final basis set = -1656.4153537717
 Final energy is   -1656.41535377168
 **  OPTIMIZATION CONVERGED  **

                    Orbital Energies (a.u.)
 --------------------------------------------------------------

 Alpha MOs
 -- Occupied --
-89.075 -89.066 -89.063 -10.410 -10.410 -10.392 -10.389 -10.379
-10.376 -10.366 -10.366 -10.358 -10.357 -10.345 -10.342  -8.134
 -8.125  -8.122  -6.098  -6.094  -6.090  -6.089  -6.087  -6.085
 -6.083  -6.082  -6.080  -1.064  -1.041  -1.026  -0.944  -0.914
 -0.893  -0.893  -0.883  -0.841  -0.771  -0.748  -0.710  -0.707
 -0.689  -0.677  -0.673  -0.643  -0.608  -0.572  -0.571  -0.569
 -0.561  -0.551  -0.548  -0.544  -0.534  -0.521  -0.519  -0.511
 -0.494  -0.488  -0.454  -0.421  -0.407  -0.404  -0.395  -0.347

 Beta MOs
 -- Occupied --
-89.075 -89.066 -89.063 -10.407 -10.407 -10.391 -10.389 -10.376
-10.373 -10.365 -10.365 -10.356 -10.355 -10.346 -10.343  -8.134
 -8.125  -8.123  -6.098  -6.095  -6.091  -6.089  -6.087  -6.085
 -6.083  -6.082  -6.080  -1.059  -1.037  -1.022  -0.939  -0.912
 -0.891  -0.889  -0.881  -0.834  -0.768  -0.745  -0.707  -0.705
 -0.687  -0.675  -0.671  -0.641  -0.606  -0.569  -0.568  -0.562
 -0.559  -0.549  -0.545  -0.537  -0.532  -0.518  -0.510  -0.508
 -0.494  -0.488  -0.435  -0.419  -0.402  -0.400  -0.379

          Ground-State Mulliken Net Atomic Charges

     Atom                 Charge (a.u.)    Spin (a.u.)
  --------------------------------------------------------
      1 H                     0.241202      -0.011617
      2 H                     0.163144       0.001447
      3 C                     0.054555       0.225112
      4 C                    -0.224898      -0.036968
      5 S                    -0.036251      -0.020416
      6 C                     0.464494       0.138085
      7 H                     0.143868      -0.009025
      8 C                    -0.214559       0.029099
      9 H                     0.145696      -0.004606
     10 C                    -0.076848       0.180036
     11 C                    -0.080175       0.053473
     12 S                    -0.309236      -0.059528
     13 C                     0.175809       0.059431
     14 H                     0.158424      -0.004320
     15 C                    -0.032506       0.180167
     16 C                    -0.152129       0.018535
     17 H                     0.149946      -0.008752
     18 C                     0.215309       0.139391
     19 S                     0.049408      -0.025929
     20 C                    -0.295459      -0.045895
     21 C                     0.061078       0.211372
     22 H                     0.159479       0.002039
     23 H                     0.239649      -0.011132
  --------------------------------------------------------
  Sum of atomic charges =     1.000000

                    Cartesian Multipole Moments
 -----------------------------------------------------------------
    Charge (ESU x 10^10)
                 4.8032
    Dipole Moment (Debye)
         X      28.8687      Y      -1.6261      Z      -0.2721
       Tot      28.9157
    Quadrupole Moments (Debye-Ang)
        XX     156.2155     XY      -4.5349     YY     -88.3205
        XZ       2.6854     YZ       7.2728     ZZ    -107.9955

 Total job time:  199.14s(wall), 211.05s(cpu)
        *  Thank you very much for using Q-Chem.  Have a nice day.  *
