 Q-Chem 4.4, Q-Chem, Inc., Pleasanton, CA (2016)
 Q-Chem 4.4.2 for Intel X86 EM64T Linux

User input:
--------------------------------------------------------------
$molecule
 1  2
 H           0.00000000        0.00000000        0.00000000
 H           0.66366000       -2.46828000       -0.59127000
 C           0.99103000       -0.39106000       -0.11652000
 C           1.36812000       -1.67442000       -0.42485000
 S           2.34669000        0.62586000        0.08638000
 C           2.76167000       -1.82175000       -0.50822000
 H           3.26291000       -2.73877000       -0.76199000
 C           3.44671000       -0.65043000       -0.26057000
 H           4.55645000        1.43902671        0.15704385
 C           4.88382000       -0.65043000       -0.26057000
 C           5.26091000        0.64090194        0.01245390
 S           6.23948000       -1.67253113       -0.43550939
 C           6.65446000        0.79046248        0.09175311
 H           7.15570000        1.71409653        0.32028213
 C           7.33950000       -0.38720773       -0.12368600
 C           8.77661000       -0.38720773       -0.12368600
 H           8.96041000       -2.49402434        0.29333698
 C           9.46165000       -1.56754057        0.07665446
 S           9.87663000        0.90200335       -0.41902429
 C          10.85520000       -1.41697650       -0.00072232
 C          11.23229000       -0.12225457       -0.25718802
 H          11.55966000       -2.21688724        0.13363433
 H          12.22332000        0.27317596       -0.35788602
$end

$rem
         jobtype = opt
        exchange = b3lyp
           basis = 6-31++g**
  max_scf_cycles = 150
      mem_static = 281
       mem_total = 2818
      sym_ignore = true
        symmetry = false
          thresh = 12
$end

$opt
CONSTRAINT
tors 13 15 16 18 160.0
ENDCONSTRAINT
$end

--------------------------------------------------------------

   19   -1656.3701560880      5.09E-09 Convergence criterion met
 Total energy in the final basis set = -1656.3701560880
   17   -1656.4020873930      5.94E-09 Convergence criterion met
 Total energy in the final basis set = -1656.4020873930
   16   -1656.4149427916      8.00E-09 Convergence criterion met
 Total energy in the final basis set = -1656.4149427916
   15   -1656.4168774913      7.00E-09 Convergence criterion met
 Total energy in the final basis set = -1656.4168774913
   14   -1656.4171315185      4.63E-09 Convergence criterion met
 Total energy in the final basis set = -1656.4171315185
   14   -1656.4172415095      4.75E-09 Convergence criterion met
 Total energy in the final basis set = -1656.4172415095
   12   -1656.4172598542      7.40E-09 Convergence criterion met
 Total energy in the final basis set = -1656.4172598542
   12   -1656.4172660980      5.55E-09 Convergence criterion met
 Total energy in the final basis set = -1656.4172660980
   10   -1656.4172678623      8.55E-09 Convergence criterion met
 Total energy in the final basis set = -1656.4172678623
   10   -1656.4172689913      5.56E-09 Convergence criterion met
 Total energy in the final basis set = -1656.4172689913

             Standard Nuclear Orientation (Angstroms)
    I     Atom           X                Y                Z
 ----------------------------------------------------------------
    1      H      -0.0897044368    -0.4002770614    -0.1298386385
    2      H       0.9166685651    -2.8002899897    -0.5642887704
    3      C       0.9606200331    -0.6567319656    -0.1869791995
    4      C       1.5126089150    -1.9084825575    -0.4136145528
    5      S       2.1457678145     0.5698019677     0.0157620785
    6      C       2.9143195746    -1.8822274696    -0.4233306237
    7      H       3.5303961050    -2.7602559010    -0.5826892396
    8      C       3.4474343130    -0.6015791386    -0.2033150750
    9      H       4.7058604687     1.9391596373     0.2786876859
   10      C       4.8075690252    -0.2139589900    -0.1503368673
   11      C       5.3347039768     1.0773894408     0.0869236999
   12      S       6.1071376068    -1.3689417034    -0.4027551864
   13      C       6.7171974731     1.1263697680     0.0691896616
   14      H       7.2902878832     2.0284811023     0.2497955826
   15      C       7.3264027428    -0.1245545014    -0.1835051623
   16      C       8.7096371830    -0.4320292592    -0.2039951756
   17      H       8.7642290403    -2.6103661862     0.0273514680
   18      C       9.3236787081    -1.6868545788    -0.0716323179
   19      S       9.9305290253     0.8378389915    -0.2975532905
   20      C      10.7248851530    -1.6187114329    -0.0559237230
   21      C      11.1941241402    -0.3196361268    -0.1722701605
   22      H      11.3771832414    -2.4775797591     0.0437619171
   23      H      12.2253434488     0.0091928737    -0.1995973908
 ----------------------------------------------------------------

   10   -1656.4172698952      4.82E-09 Convergence criterion met
 Total energy in the final basis set = -1656.4172698952
 Final energy is   -1656.41726989521
 **  OPTIMIZATION CONVERGED  **

                    Orbital Energies (a.u.)
 --------------------------------------------------------------

 Alpha MOs
 -- Occupied --
-89.074 -89.065 -89.064 -10.410 -10.410 -10.391 -10.390 -10.379
-10.377 -10.367 -10.366 -10.358 -10.357 -10.345 -10.344  -8.133
 -8.124  -8.123  -6.097  -6.094  -6.089  -6.089  -6.087  -6.085
 -6.083  -6.082  -6.080  -1.064  -1.041  -1.026  -0.944  -0.915
 -0.893  -0.891  -0.883  -0.842  -0.772  -0.749  -0.713  -0.703
 -0.687  -0.678  -0.673  -0.646  -0.606  -0.572  -0.571  -0.571
 -0.560  -0.551  -0.548  -0.545  -0.536  -0.523  -0.519  -0.509
 -0.492  -0.490  -0.455  -0.422  -0.406  -0.404  -0.395  -0.346

 Beta MOs
 -- Occupied --
-89.074 -89.065 -89.064 -10.407 -10.407 -10.391 -10.389 -10.376
-10.374 -10.366 -10.365 -10.356 -10.355 -10.346 -10.344  -8.133
 -8.124  -8.123  -6.098  -6.094  -6.090  -6.089  -6.087  -6.085
 -6.084  -6.082  -6.080  -1.059  -1.037  -1.023  -0.939  -0.913
 -0.891  -0.890  -0.880  -0.835  -0.769  -0.746  -0.710  -0.700
 -0.685  -0.676  -0.672  -0.644  -0.604  -0.569  -0.569  -0.562
 -0.558  -0.549  -0.546  -0.537  -0.534  -0.521  -0.508  -0.508
 -0.491  -0.489  -0.437  -0.419  -0.402  -0.400  -0.379

          Ground-State Mulliken Net Atomic Charges

     Atom                 Charge (a.u.)    Spin (a.u.)
  --------------------------------------------------------
      1 H                     0.241619      -0.011377
      2 H                     0.162839       0.001432
      3 C                     0.064697       0.219980
      4 C                    -0.246608      -0.035549
      5 S                    -0.028212      -0.019373
      6 C                     0.521884       0.135551
      7 H                     0.146328      -0.008903
      8 C                    -0.204378       0.026584
      9 H                     0.143144      -0.005116
     10 C                    -0.100387       0.178041
     11 C                    -0.065671       0.058397
     12 S                    -0.334263      -0.061264
     13 C                     0.100353       0.055522
     14 H                     0.153559      -0.004557
     15 C                    -0.139285       0.177040
     16 C                    -0.268535       0.026783
     17 H                     0.155218      -0.008595
     18 C                     0.546070       0.128414
     19 S                     0.022517      -0.017660
     20 C                    -0.316558      -0.033647
     21 C                     0.049638       0.208011
     22 H                     0.159504       0.001446
     23 H                     0.236528      -0.011160
  --------------------------------------------------------
  Sum of atomic charges =     1.000000

                    Cartesian Multipole Moments
 -----------------------------------------------------------------
    Charge (ESU x 10^10)
                 4.8032
    Dipole Moment (Debye)
         X      29.0680      Y      -2.6784      Z      -0.6198
       Tot      29.1977
    Quadrupole Moments (Debye-Ang)
        XX     159.2860     XY     -13.8403     YY     -85.8992
        XZ      -2.5707     YZ       2.6013     ZZ    -110.6416

 Total job time:  239.35s(wall), 253.29s(cpu)
        *  Thank you very much for using Q-Chem.  Have a nice day.  *
