 Q-Chem 4.4, Q-Chem, Inc., Pleasanton, CA (2016)
 Q-Chem 4.4.2 for Intel X86 EM64T Linux

User input:
--------------------------------------------------------------
$molecule
 1  2
 H           0.00000000        0.00000000        0.00000000
 H           0.66366000       -2.46828000       -0.59127000
 C           0.99103000       -0.39106000       -0.11652000
 C           1.36812000       -1.67442000       -0.42485000
 S           2.34669000        0.62586000        0.08638000
 C           2.76167000       -1.82175000       -0.50822000
 H           3.26291000       -2.73877000       -0.76199000
 C           3.44671000       -0.65043000       -0.26057000
 H           4.55645000        1.43902671        0.15704385
 C           4.88382000       -0.65043000       -0.26057000
 C           5.26091000        0.64090194        0.01245390
 S           6.23948000       -1.67253113       -0.43550939
 C           6.65446000        0.79046248        0.09175311
 H           7.15570000        1.71409653        0.32028213
 C           7.33950000       -0.38720773       -0.12368600
 C           8.77661000       -0.38720773       -0.12368600
 H           8.96041000        1.22883749       -1.53824680
 C           9.46165000        0.53482027       -0.88735234
 S           9.87663000       -1.35602812        0.77669000
 C          10.85520000        0.44311635       -0.74506005
 C          11.23229000       -0.54991288        0.12440672
 H          11.55966000        1.06868105       -1.26137169
 H          12.22332000       -0.84201676        0.40932902
$end

$rem
         jobtype = opt
        exchange = b3lyp
           basis = 6-31++g**
  max_scf_cycles = 150
      mem_static = 281
       mem_total = 2818
      sym_ignore = true
        symmetry = false
          thresh = 12
$end

$opt
CONSTRAINT
tors 13 15 16 18 -50.0
ENDCONSTRAINT
$end

--------------------------------------------------------------

   20   -1656.3644181493      6.54E-09 Convergence criterion met
 Total energy in the final basis set = -1656.3644181493
   17   -1656.3947654414      7.24E-09 Convergence criterion met
 Total energy in the final basis set = -1656.3947654414
   17   -1656.4069289772      5.53E-09 Convergence criterion met
 Total energy in the final basis set = -1656.4069289772
   16   -1656.4099050834      7.71E-09 Convergence criterion met
 Total energy in the final basis set = -1656.4099050834
   15   -1656.4106764671      9.19E-09 Convergence criterion met
 Total energy in the final basis set = -1656.4106764671
   15   -1656.4110910456      7.05E-09 Convergence criterion met
 Total energy in the final basis set = -1656.4110910456
   14   -1656.4111686441      4.58E-09 Convergence criterion met
 Total energy in the final basis set = -1656.4111686441
   13   -1656.4111839667      4.73E-09 Convergence criterion met
 Total energy in the final basis set = -1656.4111839667
   10   -1656.4111868337      9.29E-09 Convergence criterion met
 Total energy in the final basis set = -1656.4111868337
   10   -1656.4111882207      5.85E-09 Convergence criterion met
 Total energy in the final basis set = -1656.4111882207
   10   -1656.4111892540      6.14E-09 Convergence criterion met
 Total energy in the final basis set = -1656.4111892540

             Standard Nuclear Orientation (Angstroms)
    I     Atom           X                Y                Z
 ----------------------------------------------------------------
    1      H      -0.1139100349    -0.6028389842    -0.1496438527
    2      H       1.0346175609    -2.9538840188    -0.4895486760
    3      C       0.9502177036    -0.7982230380    -0.1926214400
    4      C       1.5765301883    -2.0236735807    -0.3704268349
    5      S       2.0591652776     0.5031161223    -0.0294954959
    6      C       2.9733191038    -1.9154980471    -0.3745569506
    7      H       3.6415276115    -2.7606769884    -0.4965934112
    8      C       3.4292360154    -0.5974142762    -0.1982872190
    9      H       4.5361491653     2.0170957388     0.2632272983
   10      C       4.7632199718    -0.1292306197    -0.1499437704
   11      C       5.2132390087     1.1944151583     0.0639796098
   12      S       6.1315511349    -1.2088984016    -0.3927217509
   13      C       6.5914639657     1.3244901856     0.0314236094
   14      H       7.1207777742     2.2520268286     0.2148686392
   15      C       7.2692434839     0.1119636180    -0.2270516866
   16      C       8.6790954041    -0.0999133999    -0.1646195989
   17      H       9.4348042950     1.6318857993    -1.2625999186
   18      C       9.6615896197     0.6901736644    -0.7758235007
   19      S       9.3838790807    -1.5970611195     0.4341244199
   20      C      10.9463781506     0.1209866137    -0.7170579544
   21      C      10.9513885749    -1.1083541987    -0.0831155328
   22      H      11.8372431505     0.5826717946    -1.1251746305
   23      H      11.8061537938    -1.7374003805     0.1310951077
 ----------------------------------------------------------------

   10   -1656.4111900155      7.44E-09 Convergence criterion met
 Total energy in the final basis set = -1656.4111900155
 Final energy is   -1656.41119001550
 **  OPTIMIZATION CONVERGED  **

                    Orbital Energies (a.u.)
 --------------------------------------------------------------

 Alpha MOs
 -- Occupied --
-89.075 -89.068 -89.061 -10.410 -10.410 -10.394 -10.386 -10.382
-10.372 -10.367 -10.366 -10.360 -10.354 -10.348 -10.339  -8.134
 -8.127  -8.120  -6.099  -6.095  -6.091  -6.091  -6.087  -6.084
 -6.084  -6.080  -6.077  -1.064  -1.041  -1.025  -0.944  -0.914
 -0.894  -0.890  -0.882  -0.841  -0.771  -0.747  -0.709  -0.707
 -0.689  -0.678  -0.671  -0.643  -0.608  -0.572  -0.570  -0.569
 -0.560  -0.552  -0.548  -0.543  -0.533  -0.520  -0.518  -0.510
 -0.495  -0.489  -0.451  -0.421  -0.408  -0.402  -0.394  -0.350

 Beta MOs
 -- Occupied --
-89.076 -89.068 -89.061 -10.407 -10.407 -10.394 -10.386 -10.379
-10.369 -10.366 -10.365 -10.359 -10.352 -10.348 -10.340  -8.135
 -8.127  -8.120  -6.099  -6.095  -6.092  -6.091  -6.087  -6.084
 -6.084  -6.080  -6.077  -1.059  -1.037  -1.022  -0.938  -0.912
 -0.893  -0.887  -0.880  -0.834  -0.767  -0.744  -0.707  -0.704
 -0.687  -0.677  -0.669  -0.641  -0.607  -0.569  -0.568  -0.562
 -0.558  -0.550  -0.544  -0.537  -0.531  -0.517  -0.509  -0.508
 -0.494  -0.488  -0.432  -0.419  -0.404  -0.398  -0.377

          Ground-State Mulliken Net Atomic Charges

     Atom                 Charge (a.u.)    Spin (a.u.)
  --------------------------------------------------------
      1 H                     0.241930      -0.012054
      2 H                     0.163921       0.001374
      3 C                     0.057264       0.234416
      4 C                    -0.241725      -0.037262
      5 S                    -0.046592      -0.023188
      6 C                     0.489677       0.139665
      7 H                     0.144084      -0.009069
      8 C                    -0.253372       0.037715
      9 H                     0.148808      -0.004835
     10 C                    -0.099511       0.174910
     11 C                    -0.077268       0.064375
     12 S                    -0.224304      -0.056479
     13 C                     0.146390       0.054658
     14 H                     0.178034      -0.004098
     15 C                    -0.007088       0.191246
     16 C                    -0.096314       0.017647
     17 H                     0.168806      -0.008196
     18 C                     0.093093       0.121144
     19 S                     0.077339      -0.023399
     20 C                    -0.281852      -0.036682
     21 C                     0.023636       0.185858
     22 H                     0.157333       0.001823
     23 H                     0.237713      -0.009569
  --------------------------------------------------------
  Sum of atomic charges =     1.000000

                    Cartesian Multipole Moments
 -----------------------------------------------------------------
    Charge (ESU x 10^10)
                 4.8032
    Dipole Moment (Debye)
         X      28.3639      Y      -1.5836      Z      -1.2001
       Tot      28.4334
    Quadrupole Moments (Debye-Ang)
        XX     149.1338     XY      -3.5243     YY     -86.9776
        XZ      -9.1047     YZ      -0.0867     ZZ    -108.7613

 Total job time:  269.74s(wall), 286.77s(cpu)
        *  Thank you very much for using Q-Chem.  Have a nice day.  *
