 Q-Chem 4.4, Q-Chem, Inc., Pleasanton, CA (2016)
 Q-Chem 4.4.2 for Intel X86 EM64T Linux

User input:
--------------------------------------------------------------
$molecule
 1  2
 H           0.00000000        0.00000000        0.00000000
 H           0.66366000       -2.46828000       -0.59127000
 C           0.99103000       -0.39106000       -0.11652000
 C           1.36812000       -1.67442000       -0.42485000
 S           2.34669000        0.62586000        0.08638000
 C           2.76167000       -1.82175000       -0.50822000
 H           3.26291000       -2.73877000       -0.76199000
 C           3.44671000       -0.65043000       -0.26057000
 H           4.55645000        1.43902671        0.15704385
 C           4.88382000       -0.65043000       -0.26057000
 C           5.26091000        0.64090194        0.01245390
 S           6.23948000       -1.67253113       -0.43550939
 C           6.65446000        0.79046248        0.09175311
 H           7.15570000        1.71409653        0.32028213
 C           7.33950000       -0.38720773       -0.12368600
 C           8.77661000       -0.38720773       -0.12368600
 H           8.96041000       -2.42027592       -0.81594181
 C           9.46165000       -1.50957618       -0.54035250
 S           9.87663000        0.87695096        0.26514908
 C          10.85520000       -1.34049548       -0.53208071
 C          11.23229000       -0.09100055       -0.10682556
 H          11.55966000       -2.10041683       -0.81567982
 H          12.22332000        0.30180133        0.00368268
$end

$rem
         jobtype = opt
        exchange = b3lyp
           basis = 6-31++g**
  max_scf_cycles = 150
      mem_static = 281
       mem_total = 2818
      sym_ignore = true
        symmetry = false
          thresh = 12
$end

$opt
CONSTRAINT
tors 13 15 16 18 -170.0
ENDCONSTRAINT
$end

--------------------------------------------------------------

   18   -1656.3716584585      9.52E-09 Convergence criterion met
 Total energy in the final basis set = -1656.3716584585
   17   -1656.4036768275      5.32E-09 Convergence criterion met
 Total energy in the final basis set = -1656.4036768275
   16   -1656.4163826385      8.39E-09 Convergence criterion met
 Total energy in the final basis set = -1656.4163826385
   15   -1656.4178185766      5.79E-09 Convergence criterion met
 Total energy in the final basis set = -1656.4178185766
   13   -1656.4179168096      5.63E-09 Convergence criterion met
 Total energy in the final basis set = -1656.4179168096
   12   -1656.4179414939      7.68E-09 Convergence criterion met
 Total energy in the final basis set = -1656.4179414939
   11   -1656.4179461804      6.50E-09 Convergence criterion met
 Total energy in the final basis set = -1656.4179461804
   10   -1656.4179479587      8.50E-09 Convergence criterion met
 Total energy in the final basis set = -1656.4179479587

             Standard Nuclear Orientation (Angstroms)
    I     Atom           X                Y                Z
 ----------------------------------------------------------------
    1      H      -0.0913754042    -0.4014419167    -0.1550302686
    2      H       0.9169735914    -2.7816348571    -0.6825456172
    3      C       0.9592667586    -0.6564881803    -0.2129018909
    4      C       1.5121687114    -1.8981346040    -0.4869661520
    5      S       2.1433832657     0.5584425215     0.0542861314
    6      C       2.9142081066    -1.8733105259    -0.4820409347
    7      H       3.5309475870    -2.7439755858    -0.6756134357
    8      C       3.4462415948    -0.6042149537    -0.2027085464
    9      H       4.6984460608     1.9343913253     0.2996612522
   10      C       4.8058453517    -0.2199704775    -0.1205897416
   11      C       5.3296738779     1.0678981580     0.1396831537
   12      S       6.1085407698    -1.3788372126    -0.3385896290
   13      C       6.7120077810     1.1132805024     0.1579324746
   14      H       7.2813387863     2.0192742088     0.3309196777
   15      C       7.3253361744    -0.1376562030    -0.0862281906
   16      C       8.7093694053    -0.4260854248    -0.1626524403
   17      H       8.7791554235    -2.4872232359    -0.9073761992
   18      C       9.3315922687    -1.6102169734    -0.5887813743
   19      S       9.9246782261     0.7844922712     0.2528875037
   20      C      10.7320915264    -1.5370065559    -0.5739582456
   21      C      11.1939360374    -0.3035980163    -0.1408065200
   22      H      11.3895547335    -2.3451136866    -0.8701339715
   23      H      12.2234993660     0.0123778221    -0.0294540758
 ----------------------------------------------------------------

    9   -1656.4179484742      9.58E-09 Convergence criterion met
 Total energy in the final basis set = -1656.4179484742
 Final energy is   -1656.41794847421
 **  OPTIMIZATION CONVERGED  **

                    Orbital Energies (a.u.)
 --------------------------------------------------------------

 Alpha MOs
 -- Occupied --
-89.074 -89.065 -89.065 -10.410 -10.410 -10.391 -10.390 -10.378
-10.378 -10.366 -10.366 -10.358 -10.357 -10.345 -10.344  -8.133
 -8.124  -8.124  -6.097  -6.094  -6.089  -6.088  -6.088  -6.084
 -6.084  -6.081  -6.081  -1.064  -1.041  -1.026  -0.944  -0.915
 -0.893  -0.892  -0.883  -0.842  -0.772  -0.749  -0.713  -0.703
 -0.687  -0.678  -0.674  -0.646  -0.606  -0.572  -0.571  -0.571
 -0.560  -0.551  -0.548  -0.545  -0.536  -0.523  -0.519  -0.509
 -0.492  -0.490  -0.456  -0.422  -0.406  -0.404  -0.395  -0.346

 Beta MOs
 -- Occupied --
-89.074 -89.065 -89.065 -10.407 -10.407 -10.390 -10.390 -10.375
-10.375 -10.365 -10.365 -10.356 -10.355 -10.345 -10.345  -8.133
 -8.124  -8.124  -6.098  -6.094  -6.090  -6.088  -6.088  -6.084
 -6.084  -6.081  -6.081  -1.059  -1.038  -1.023  -0.939  -0.913
 -0.891  -0.890  -0.880  -0.835  -0.769  -0.746  -0.710  -0.700
 -0.685  -0.676  -0.672  -0.644  -0.604  -0.570  -0.569  -0.562
 -0.558  -0.549  -0.546  -0.536  -0.535  -0.522  -0.508  -0.508
 -0.491  -0.489  -0.438  -0.419  -0.402  -0.400  -0.379

          Ground-State Mulliken Net Atomic Charges

     Atom                 Charge (a.u.)    Spin (a.u.)
  --------------------------------------------------------
      1 H                     0.241735      -0.011238
      2 H                     0.162230       0.001430
      3 C                     0.061594       0.217730
      4 C                    -0.235338      -0.035420
      5 S                    -0.021076      -0.018431
      6 C                     0.585609       0.135916
      7 H                     0.151975      -0.008794
      8 C                    -0.216537       0.024565
      9 H                     0.144924      -0.005136
     10 C                    -0.122375       0.181027
     11 C                    -0.051194       0.052173
     12 S                    -0.417366      -0.062876
     13 C                     0.014564       0.051854
     14 H                     0.149110      -0.004972
     15 C                    -0.143066       0.180804
     16 C                    -0.252856       0.024659
     17 H                     0.155510      -0.008679
     18 C                     0.601519       0.133672
     19 S                    -0.005119      -0.017695
     20 C                    -0.256530      -0.034690
     21 C                     0.051978       0.213910
     22 H                     0.161060       0.001418
     23 H                     0.239648      -0.011227
  --------------------------------------------------------
  Sum of atomic charges =     1.000000

                    Cartesian Multipole Moments
 -----------------------------------------------------------------
    Charge (ESU x 10^10)
                 4.8032
    Dipole Moment (Debye)
         X      29.1662      Y      -2.5932      Z      -1.1008
       Tot      29.3019
    Quadrupole Moments (Debye-Ang)
        XX     160.6147     XY     -13.1571     YY     -86.9527
        XZ      -6.7123     YZ       6.3870     ZZ    -109.5163

 Total job time:  195.82s(wall), 206.71s(cpu)
        *  Thank you very much for using Q-Chem.  Have a nice day.  *
