 Q-Chem 4.4, Q-Chem, Inc., Pleasanton, CA (2016)
 Q-Chem 4.4.2 for Intel X86 EM64T Linux

User input:
--------------------------------------------------------------
$molecule
 1  2
 H           0.00000000        0.00000000        0.00000000
 H           0.66366000       -2.46828000       -0.59127000
 C           0.99103000       -0.39106000       -0.11652000
 C           1.36812000       -1.67442000       -0.42485000
 S           2.34669000        0.62586000        0.08638000
 C           2.76167000       -1.82175000       -0.50822000
 H           3.26291000       -2.73877000       -0.76199000
 C           3.44671000       -0.65043000       -0.26057000
 H           4.55645000        1.43902671        0.15704385
 C           4.88382000       -0.65043000       -0.26057000
 C           5.26091000        0.64090194        0.01245390
 S           6.23948000       -1.67253113       -0.43550939
 C           6.65446000        0.79046248        0.09175311
 H           7.15570000        1.71409653        0.32028213
 C           7.33950000       -0.38720773       -0.12368600
 C           8.77661000       -0.38720773       -0.12368600
 H           8.96041000        1.73518256        0.20501431
 C           9.46165000        0.79046281        0.09175317
 S           9.87663000       -1.69968150       -0.28709494
 C          10.85520000        0.62251444        0.11296760
 C          11.23229000       -0.68184263       -0.08885445
 H          11.55966000        1.42013735        0.26029924
 H          12.22332000       -1.08786653       -0.12947448
$end

$rem
         jobtype = opt
        exchange = b3lyp
           basis = 6-31++g**
  max_scf_cycles = 150
      mem_static = 281
       mem_total = 2818
      sym_ignore = true
        symmetry = false
          thresh = 12
$end

$opt
CONSTRAINT
tors 13 15 16 18 0.0
ENDCONSTRAINT
$end

--------------------------------------------------------------

   18   -1656.3704156281      8.01E-09 Convergence criterion met
 Total energy in the final basis set = -1656.3704156281
   18   -1656.4034026366      7.54E-09 Convergence criterion met
 Total energy in the final basis set = -1656.4034026366
   16   -1656.4156248955      8.63E-09 Convergence criterion met
 Total energy in the final basis set = -1656.4156248955
   15   -1656.4170809066      7.38E-09 Convergence criterion met
 Total energy in the final basis set = -1656.4170809066
   13   -1656.4172050709      7.65E-09 Convergence criterion met
 Total energy in the final basis set = -1656.4172050709
   13   -1656.4172511449      4.44E-09 Convergence criterion met
 Total energy in the final basis set = -1656.4172511449
   11   -1656.4172662262      8.83E-09 Convergence criterion met
 Total energy in the final basis set = -1656.4172662262
   11   -1656.4172730316      4.76E-09 Convergence criterion met
 Total energy in the final basis set = -1656.4172730316
   10   -1656.4172750541      7.66E-09 Convergence criterion met
 Total energy in the final basis set = -1656.4172750541

             Standard Nuclear Orientation (Angstroms)
    I     Atom           X                Y                Z
 ----------------------------------------------------------------
    1      H      -0.1257552923    -0.5681379021    -0.2344710642
    2      H       1.0021008472    -2.9137771416    -0.6663421633
    3      C       0.9364429129    -0.7758117497    -0.2631711232
    4      C       1.5517404929    -1.9978704709    -0.4870227679
    5      S       2.0575254936     0.5007624722    -0.0097782948
    6      C       2.9506852547    -1.9076884760    -0.4544247236
    7      H       3.6110663253    -2.7542225850    -0.6064672985
    8      C       3.4175290009    -0.6072536217    -0.2036674124
    9      H       4.5430730056     1.9934663986     0.2857989585
   10      C       4.7556903063    -0.1574653695    -0.1072324643
   11      C       5.2164490683     1.1569009468     0.1393165872
   12      S       6.1147004248    -1.2558304441    -0.2947945319
   13      C       6.5940153880     1.2673375595     0.1737462727
   14      H       7.1164246377     2.1992586903     0.3498170618
   15      C       7.2689040524     0.0417799081    -0.0455545901
   16      C       8.6711440866    -0.1596824142    -0.0694080820
   17      H       9.4413355094     1.8603397226     0.3117583389
   18      C       9.6645474714     0.8178614436     0.1199800851
   19      S       9.4125859879    -1.7311940376    -0.3559527354
   20      C      10.9676002956     0.3066043232     0.0358447372
   21      C      10.9880633458    -1.0553688477    -0.2173116405
   22      H      11.8655499677     0.9007280810     0.1536398006
   23      H      11.8554614175    -1.6935689156    -0.3286509000
 ----------------------------------------------------------------

    9   -1656.4172756081      8.44E-09 Convergence criterion met
 Total energy in the final basis set = -1656.4172756081
 Final energy is   -1656.41727560805
 **  OPTIMIZATION CONVERGED  **

                    Orbital Energies (a.u.)
 --------------------------------------------------------------

 Alpha MOs
 -- Occupied --
-89.074 -89.065 -89.065 -10.410 -10.409 -10.391 -10.390 -10.378
-10.378 -10.367 -10.365 -10.358 -10.357 -10.344 -10.344  -8.133
 -8.124  -8.124  -6.098  -6.094  -6.090  -6.088  -6.088  -6.084
 -6.084  -6.081  -6.081  -1.064  -1.041  -1.026  -0.944  -0.914
 -0.894  -0.892  -0.883  -0.841  -0.772  -0.749  -0.711  -0.707
 -0.689  -0.677  -0.674  -0.643  -0.608  -0.572  -0.572  -0.570
 -0.561  -0.550  -0.547  -0.545  -0.535  -0.520  -0.519  -0.512
 -0.494  -0.488  -0.457  -0.422  -0.407  -0.404  -0.395  -0.345

 Beta MOs
 -- Occupied --
-89.075 -89.065 -89.065 -10.407 -10.407 -10.391 -10.390 -10.375
-10.375 -10.366 -10.365 -10.356 -10.355 -10.345 -10.344  -8.134
 -8.124  -8.124  -6.098  -6.094  -6.090  -6.088  -6.088  -6.084
 -6.084  -6.081  -6.081  -1.059  -1.037  -1.023  -0.939  -0.912
 -0.891  -0.890  -0.881  -0.833  -0.768  -0.746  -0.708  -0.704
 -0.687  -0.675  -0.672  -0.641  -0.606  -0.570  -0.568  -0.562
 -0.559  -0.548  -0.546  -0.535  -0.534  -0.519  -0.511  -0.508
 -0.493  -0.487  -0.438  -0.420  -0.402  -0.400  -0.379

          Ground-State Mulliken Net Atomic Charges

     Atom                 Charge (a.u.)    Spin (a.u.)
  --------------------------------------------------------
      1 H                     0.242126      -0.011199
      2 H                     0.162704       0.001444
      3 C                     0.056826       0.220099
      4 C                    -0.209220      -0.037296
      5 S                    -0.021694      -0.019071
      6 C                     0.566850       0.138663
      7 H                     0.152857      -0.008830
      8 C                    -0.239883       0.022038
      9 H                     0.144015      -0.004771
     10 C                    -0.112411       0.189947
     11 C                    -0.205822       0.044111
     12 S                    -0.519026      -0.066017
     13 C                     0.180337       0.056033
     14 H                     0.136659      -0.004802
     15 C                     0.154477       0.175626
     16 C                    -0.137835       0.018826
     17 H                     0.125461      -0.009900
     18 C                     0.381810       0.153165
     19 S                     0.073673      -0.027903
     20 C                    -0.404592      -0.050770
     21 C                     0.066305       0.230181
     22 H                     0.161039       0.002284
     23 H                     0.245346      -0.011858
  --------------------------------------------------------
  Sum of atomic charges =     1.000000

                    Cartesian Multipole Moments
 -----------------------------------------------------------------
    Charge (ESU x 10^10)
                 4.8032
    Dipole Moment (Debye)
         X      29.1459      Y      -1.4004      Z      -0.5903
       Tot      29.1855
    Quadrupole Moments (Debye-Ang)
        XX     160.0997     XY      -1.9970     YY     -86.2649
        XZ      -1.4526     YZ       4.8280     ZZ    -110.3644

 Total job time:  216.68s(wall), 229.72s(cpu)
        *  Thank you very much for using Q-Chem.  Have a nice day.  *
