 Q-Chem 4.4, Q-Chem, Inc., Pleasanton, CA (2016)
 Q-Chem 4.4.2 for Intel X86 EM64T Linux

User input:
--------------------------------------------------------------
$molecule
 1  2
 H           0.00000000        0.00000000        0.00000000
 H           0.66366000       -2.46828000       -0.59127000
 C           0.99103000       -0.39106000       -0.11652000
 C           1.36812000       -1.67442000       -0.42485000
 S           2.34669000        0.62586000        0.08638000
 C           2.76167000       -1.82175000       -0.50822000
 H           3.26291000       -2.73877000       -0.76199000
 C           3.44671000       -0.65043000       -0.26057000
 H           4.55645000        1.43902671        0.15704385
 C           4.88382000       -0.65043000       -0.26057000
 C           5.26091000        0.64090194        0.01245390
 S           6.23948000       -1.67253113       -0.43550939
 C           6.65446000        0.79046248        0.09175311
 H           7.15570000        1.71409653        0.32028213
 C           7.33950000       -0.38720773       -0.12368600
 C           8.77661000       -0.38720773       -0.12368600
 H           8.96041000       -2.06090148       -1.46954395
 C           9.46165000       -1.29938075       -0.89909705
 S           9.87663000        0.66772343        0.67406719
 C          10.85520000       -1.14332598       -0.83349511
 C          11.23229000       -0.11463064       -0.00653355
 H          11.55966000       -1.76042186       -1.35989951
 H          12.22332000        0.21668635        0.23165638
$end

$rem
         jobtype = opt
        exchange = b3lyp
           basis = 6-31++g**
  max_scf_cycles = 150
      mem_static = 281
       mem_total = 2818
      sym_ignore = true
        symmetry = false
          thresh = 12
$end

$opt
CONSTRAINT
tors 13 15 16 18 -150.0
ENDCONSTRAINT
$end

--------------------------------------------------------------

   19   -1656.3696724704      4.73E-09 Convergence criterion met
 Total energy in the final basis set = -1656.3696724704
   17   -1656.4015663465      5.72E-09 Convergence criterion met
 Total energy in the final basis set = -1656.4015663465
   16   -1656.4142751673      7.37E-09 Convergence criterion met
 Total energy in the final basis set = -1656.4142751673
   15   -1656.4158401083      5.94E-09 Convergence criterion met
 Total energy in the final basis set = -1656.4158401083
   13   -1656.4159603505      7.47E-09 Convergence criterion met
 Total energy in the final basis set = -1656.4159603505
   13   -1656.4159903675      5.21E-09 Convergence criterion met
 Total energy in the final basis set = -1656.4159903675
   11   -1656.4159945190      5.67E-09 Convergence criterion met
 Total energy in the final basis set = -1656.4159945190
   10   -1656.4159958306      6.20E-09 Convergence criterion met
 Total energy in the final basis set = -1656.4159958306

             Standard Nuclear Orientation (Angstroms)
    I     Atom           X                Y                Z
 ----------------------------------------------------------------
    1      H      -0.0891567700    -0.3967904135    -0.1958830315
    2      H       0.9244626589    -2.7667890163    -0.7585304454
    3      C       0.9620628127    -0.6513622446    -0.2452124075
    4      C       1.5177918319    -1.8880671140    -0.5374417407
    5      S       2.1431998320     0.5571222697     0.0614342603
    6      C       2.9192729563    -1.8643761478    -0.5149644526
    7      H       3.5381989711    -2.7309038756    -0.7196768753
    8      C       3.4485638363    -0.6009903602    -0.2037098047
    9      H       4.6989861802     1.9338016550     0.3237799501
   10      C       4.8072912905    -0.2204506000    -0.0962865954
   11      C       5.3299466129     1.0636077425     0.1836496219
   12      S       6.1115499201    -1.3829172143    -0.2918405591
   13      C       6.7126252108     1.1038663063     0.2323536911
   14      H       7.2850370002     2.0074770363     0.4068427258
   15      C       7.3243903506    -0.1477954246    -0.0063307685
   16      C       8.7094041223    -0.4324240677    -0.1287813539
   17      H       8.7637727733    -2.1842291330    -1.4413002873
   18      C       9.3239218436    -1.4396777617    -0.8868518008
   19      S       9.9262952963     0.6300897760     0.5775444449
   20      C      10.7255719810    -1.3592620631    -0.8807456629
   21      C      11.1922620332    -0.2946151916    -0.1270637174
   22      H      11.3784739957    -2.0414328064    -1.4113149103
   23      H      12.2229552602    -0.0198712112     0.0585257194
 ----------------------------------------------------------------

    9   -1656.4159961167      5.51E-09 Convergence criterion met
 Total energy in the final basis set = -1656.4159961167
 Final energy is   -1656.41599611672
 **  OPTIMIZATION CONVERGED  **

                    Orbital Energies (a.u.)
 --------------------------------------------------------------

 Alpha MOs
 -- Occupied --
-89.074 -89.066 -89.063 -10.410 -10.410 -10.392 -10.389 -10.380
-10.376 -10.367 -10.366 -10.359 -10.356 -10.346 -10.343  -8.133
 -8.125  -8.122  -6.098  -6.094  -6.090  -6.089  -6.086  -6.085
 -6.083  -6.082  -6.079  -1.064  -1.041  -1.026  -0.944  -0.915
 -0.893  -0.891  -0.883  -0.842  -0.772  -0.749  -0.713  -0.703
 -0.687  -0.678  -0.673  -0.646  -0.606  -0.572  -0.571  -0.570
 -0.560  -0.551  -0.547  -0.545  -0.535  -0.522  -0.519  -0.509
 -0.492  -0.490  -0.454  -0.422  -0.407  -0.404  -0.395  -0.347

 Beta MOs
 -- Occupied --
-89.075 -89.066 -89.063 -10.407 -10.407 -10.392 -10.388 -10.377
-10.373 -10.366 -10.365 -10.357 -10.354 -10.346 -10.343  -8.134
 -8.125  -8.122  -6.098  -6.094  -6.090  -6.089  -6.086  -6.086
 -6.083  -6.082  -6.079  -1.059  -1.037  -1.022  -0.939  -0.912
 -0.892  -0.889  -0.880  -0.835  -0.768  -0.746  -0.710  -0.700
 -0.685  -0.676  -0.671  -0.644  -0.605  -0.569  -0.569  -0.562
 -0.557  -0.549  -0.545  -0.538  -0.533  -0.520  -0.508  -0.507
 -0.492  -0.490  -0.435  -0.419  -0.403  -0.400  -0.379

          Ground-State Mulliken Net Atomic Charges

     Atom                 Charge (a.u.)    Spin (a.u.)
  --------------------------------------------------------
      1 H                     0.241503      -0.011583
      2 H                     0.163403       0.001419
      3 C                     0.065608       0.223387
      4 C                    -0.256775      -0.035463
      5 S                    -0.032882      -0.020427
      6 C                     0.479448       0.135592
      7 H                     0.142942      -0.008988
      8 C                    -0.188700       0.030095
      9 H                     0.143312      -0.005068
     10 C                    -0.101506       0.175151
     11 C                    -0.080718       0.065368
     12 S                    -0.256035      -0.059756
     13 C                     0.153420       0.059037
     14 H                     0.157674      -0.004160
     15 C                    -0.140815       0.171313
     16 C                    -0.246922       0.030844
     17 H                     0.155676      -0.008467
     18 C                     0.482072       0.120831
     19 S                     0.051976      -0.018217
     20 C                    -0.379975      -0.031637
     21 C                     0.055550       0.200046
     22 H                     0.157840       0.001505
     23 H                     0.233905      -0.010821
  --------------------------------------------------------
  Sum of atomic charges =     1.000000

                    Cartesian Multipole Moments
 -----------------------------------------------------------------
    Charge (ESU x 10^10)
                 4.8032
    Dipole Moment (Debye)
         X      28.9042      Y      -2.4160      Z      -1.3806
       Tot      29.0378
    Quadrupole Moments (Debye-Ang)
        XX     157.0647     XY     -11.2143     YY     -89.0041
        XZ      -8.9060     YZ       7.9518     ZZ    -107.4740

 Total job time:  198.58s(wall), 210.92s(cpu)
        *  Thank you very much for using Q-Chem.  Have a nice day.  *
