 Q-Chem 4.4, Q-Chem, Inc., Pleasanton, CA (2016)
 Q-Chem 4.4.2 for Intel X86 EM64T Linux

User input:
--------------------------------------------------------------
$molecule
 1  2
 H           0.00000000        0.00000000        0.00000000
 H           0.66366000       -2.46828000       -0.59127000
 C           0.99103000       -0.39106000       -0.11652000
 C           1.36812000       -1.67442000       -0.42485000
 S           2.34669000        0.62586000        0.08638000
 C           2.76167000       -1.82175000       -0.50822000
 H           3.26291000       -2.73877000       -0.76199000
 C           3.44671000       -0.65043000       -0.26057000
 H           4.55645000        1.43902671        0.15704385
 C           4.88382000       -0.65043000       -0.26057000
 C           5.26091000        0.64090194        0.01245390
 S           6.23948000       -1.67253113       -0.43550939
 C           6.65446000        0.79046248        0.09175311
 H           7.15570000        1.71409653        0.32028213
 C           7.33950000       -0.38720773       -0.12368600
 C           8.77661000       -0.38720773       -0.12368600
 H           8.96041000       -2.53443234       -0.07884340
 C           9.46165000       -1.58439742       -0.13135181
 S           9.87663000        0.93370229       -0.19066828
 C          10.85520000       -1.42268442       -0.18140788
 C          11.23229000       -0.10309742       -0.20915119
 H          11.55966000       -2.23377351       -0.18799546
 H          12.22332000        0.30381165       -0.23965357
$end

$rem
         jobtype = opt
        exchange = b3lyp
           basis = 6-31++g**
  max_scf_cycles = 150
      mem_static = 281
       mem_total = 2818
      sym_ignore = true
        symmetry = false
          thresh = 12
$end

$opt
CONSTRAINT
tors 13 15 16 18 170.0
ENDCONSTRAINT
$end

--------------------------------------------------------------

   19   -1656.3712341577      4.06E-09 Convergence criterion met
 Total energy in the final basis set = -1656.3712341577
   17   -1656.4032538468      5.66E-09 Convergence criterion met
 Total energy in the final basis set = -1656.4032538468
   16   -1656.4160497844      8.38E-09 Convergence criterion met
 Total energy in the final basis set = -1656.4160497844
   15   -1656.4176994439      6.13E-09 Convergence criterion met
 Total energy in the final basis set = -1656.4176994439
   14   -1656.4178711368      3.09E-09 Convergence criterion met
 Total energy in the final basis set = -1656.4178711368
   13   -1656.4179431144      6.54E-09 Convergence criterion met
 Total energy in the final basis set = -1656.4179431144
   12   -1656.4179590506      5.25E-09 Convergence criterion met
 Total energy in the final basis set = -1656.4179590506
   11   -1656.4179649325      8.35E-09 Convergence criterion met
 Total energy in the final basis set = -1656.4179649325
   10   -1656.4179664079      7.21E-09 Convergence criterion met
 Total energy in the final basis set = -1656.4179664079

             Standard Nuclear Orientation (Angstroms)
    I     Atom           X                Y                Z
 ----------------------------------------------------------------
    1      H      -0.0903350875    -0.4049398934    -0.1310721520
    2      H       0.9181847101    -2.7963327130    -0.6056615301
    3      C       0.9602251291    -0.6596842011    -0.1913925077
    4      C       1.5132610981    -1.9069177058    -0.4384262304
    5      S       2.1443183138     0.5638549848     0.0342163590
    6      C       2.9151483993    -1.8795946609    -0.4455730005
    7      H       3.5319766381    -2.7542257544    -0.6200565693
    8      C       3.4470343086    -0.6027380697    -0.2031098360
    9      H       4.7018790586     1.9385743511     0.2830693363
   10      C       4.8068341063    -0.2151450977    -0.1415954457
   11      C       5.3322564885     1.0755774572     0.1022472434
   12      S       6.1077427730    -1.3706105645    -0.3828339344
   13      C       6.7145808129     1.1240633042     0.0965288551
   14      H       7.2849534556     2.0284262343     0.2746998056
   15      C       7.3264241378    -0.1266968974    -0.1527022153
   16      C       8.7096113937    -0.4266503124    -0.1917088063
   17      H       8.7691780067    -2.6159213635    -0.2888691531
   18      C       9.3262243259    -1.6865702885    -0.2474613636
   19      S       9.9300804185     0.8455145212    -0.1120654496
   20      C      10.7268614007    -1.6193271056    -0.2308091948
   21      C      11.1944051906    -0.3159262797    -0.1606356016
   22      H      11.3807920402    -2.4820437599    -0.2640645103
   23      H      12.2252428811     0.0147037147    -0.1407540886
 ----------------------------------------------------------------

    9   -1656.4179670827      6.61E-09 Convergence criterion met
 Total energy in the final basis set = -1656.4179670827
 Final energy is   -1656.41796708273
 **  OPTIMIZATION CONVERGED  **

                    Orbital Energies (a.u.)
 --------------------------------------------------------------

 Alpha MOs
 -- Occupied --
-89.074 -89.065 -89.065 -10.410 -10.410 -10.391 -10.390 -10.378
-10.378 -10.366 -10.366 -10.358 -10.357 -10.345 -10.344  -8.133
 -8.124  -8.124  -6.097  -6.094  -6.089  -6.088  -6.088  -6.084
 -6.084  -6.081  -6.081  -1.064  -1.041  -1.026  -0.944  -0.915
 -0.893  -0.892  -0.883  -0.842  -0.772  -0.749  -0.713  -0.703
 -0.687  -0.678  -0.674  -0.646  -0.606  -0.572  -0.571  -0.571
 -0.560  -0.551  -0.548  -0.545  -0.536  -0.523  -0.519  -0.509
 -0.492  -0.490  -0.456  -0.422  -0.406  -0.404  -0.395  -0.346

 Beta MOs
 -- Occupied --
-89.074 -89.065 -89.065 -10.407 -10.407 -10.390 -10.390 -10.375
-10.375 -10.366 -10.365 -10.356 -10.355 -10.345 -10.345  -8.133
 -8.124  -8.124  -6.098  -6.094  -6.090  -6.088  -6.088  -6.084
 -6.084  -6.081  -6.081  -1.059  -1.038  -1.023  -0.939  -0.913
 -0.891  -0.890  -0.880  -0.835  -0.769  -0.746  -0.710  -0.700
 -0.685  -0.676  -0.672  -0.644  -0.604  -0.570  -0.569  -0.562
 -0.558  -0.549  -0.546  -0.536  -0.534  -0.522  -0.508  -0.508
 -0.491  -0.489  -0.438  -0.419  -0.402  -0.400  -0.379

          Ground-State Mulliken Net Atomic Charges

     Atom                 Charge (a.u.)    Spin (a.u.)
  --------------------------------------------------------
      1 H                     0.241794      -0.011235
      2 H                     0.162282       0.001435
      3 C                     0.061365       0.217717
      4 C                    -0.232021      -0.035474
      5 S                    -0.022949      -0.018513
      6 C                     0.598514       0.136125
      7 H                     0.152452      -0.008784
      8 C                    -0.226057       0.024335
      9 H                     0.145448      -0.005160
     10 C                    -0.129582       0.181105
     11 C                    -0.047567       0.052242
     12 S                    -0.433728      -0.063257
     13 C                     0.018554       0.051516
     14 H                     0.149749      -0.004981
     15 C                    -0.144504       0.181397
     16 C                    -0.261662       0.024564
     17 H                     0.155826      -0.008673
     18 C                     0.616509       0.133832
     19 S                    -0.004656      -0.017754
     20 C                    -0.252600      -0.034728
     21 C                     0.051843       0.214102
     22 H                     0.161159       0.001425
     23 H                     0.239833      -0.011235
  --------------------------------------------------------
  Sum of atomic charges =     1.000000

                    Cartesian Multipole Moments
 -----------------------------------------------------------------
    Charge (ESU x 10^10)
                 4.8032
    Dipole Moment (Debye)
         X      29.1685      Y      -2.6736      Z      -0.7811
       Tot      29.3012
    Quadrupole Moments (Debye-Ang)
        XX     160.6020     XY     -13.9054     YY     -85.9108
        XZ      -4.0043     YZ       3.9431     ZZ    -110.5884

 Total job time:  219.57s(wall), 232.59s(cpu)
        *  Thank you very much for using Q-Chem.  Have a nice day.  *
