 Q-Chem 4.4, Q-Chem, Inc., Pleasanton, CA (2016)
 Q-Chem 4.4.2 for Intel X86 EM64T Linux

User input:
--------------------------------------------------------------
$molecule
 1  2
 H           0.00000000        0.00000000        0.00000000
 H           0.66366000       -2.46828000       -0.59127000
 C           0.99103000       -0.39106000       -0.11652000
 C           1.36812000       -1.67442000       -0.42485000
 S           2.34669000        0.62586000        0.08638000
 C           2.76167000       -1.82175000       -0.50822000
 H           3.26291000       -2.73877000       -0.76199000
 C           3.44671000       -0.65043000       -0.26057000
 H           4.55645000        1.43902671        0.15704385
 C           4.88382000       -0.65043000       -0.26057000
 C           5.26091000        0.64090194        0.01245390
 S           6.23948000       -1.67253113       -0.43550939
 C           6.65446000        0.79046248        0.09175311
 H           7.15570000        1.71409653        0.32028213
 C           7.33950000       -0.38720773       -0.12368600
 C           8.77661000       -0.38720773       -0.12368600
 H           8.96041000        1.76001689       -0.16852859
 C           9.46165000        0.80998196       -0.11602018
 S           9.87663000       -1.70811774       -0.05670371
 C          10.85520000        0.64826896       -0.06596411
 C          11.23229000       -0.67131803       -0.03822080
 H          11.55966000        1.45935805       -0.05937653
 H          12.22332000       -1.07822711       -0.00771842
$end

$rem
         jobtype = opt
        exchange = b3lyp
           basis = 6-31++g**
  max_scf_cycles = 150
      mem_static = 281
       mem_total = 2818
      sym_ignore = true
        symmetry = false
          thresh = 12
$end

$opt
CONSTRAINT
tors 13 15 16 18 -10.0
ENDCONSTRAINT
$end

--------------------------------------------------------------

   18   -1656.3706015330      8.42E-09 Convergence criterion met
 Total energy in the final basis set = -1656.3706015330
   17   -1656.4032564890      7.33E-09 Convergence criterion met
 Total energy in the final basis set = -1656.4032564890
   16   -1656.4153133707      8.67E-09 Convergence criterion met
 Total energy in the final basis set = -1656.4153133707
   15   -1656.4168020346      6.14E-09 Convergence criterion met
 Total energy in the final basis set = -1656.4168020346
   14   -1656.4169566989      4.63E-09 Convergence criterion met
 Total energy in the final basis set = -1656.4169566989
   13   -1656.4170270984      8.22E-09 Convergence criterion met
 Total energy in the final basis set = -1656.4170270984
   12   -1656.4170499939      9.16E-09 Convergence criterion met
 Total energy in the final basis set = -1656.4170499939
   12   -1656.4170599650      5.86E-09 Convergence criterion met
 Total energy in the final basis set = -1656.4170599650
   10   -1656.4170628308      9.01E-09 Convergence criterion met
 Total energy in the final basis set = -1656.4170628308

             Standard Nuclear Orientation (Angstroms)
    I     Atom           X                Y                Z
 ----------------------------------------------------------------
    1      H      -0.1253469602    -0.5702228746    -0.2229405441
    2      H       1.0027217045    -2.9198927125    -0.6320973189
    3      C       0.9368894812    -0.7775360692    -0.2528473296
    4      C       1.5523361122    -2.0016123564    -0.4652559015
    5      S       2.0579433350     0.5026001835    -0.0177395718
    6      C       2.9512604477    -1.9101749409    -0.4381527180
    7      H       3.6117464370    -2.7580880730    -0.5817891576
    8      C       3.4180433002    -0.6066255062    -0.2033706296
    9      H       4.5427219420     1.9944003102     0.2848084263
   10      C       4.7561730140    -0.1552952460    -0.1144976091
   11      C       5.2165087439     1.1601885094     0.1271592727
   12      S       6.1156376408    -1.2511618885    -0.3141712705
   13      C       6.5942067324     1.2729036373     0.1508495975
   14      H       7.1174699485     2.2029759947     0.3347519072
   15      C       7.2689739030     0.0485550744    -0.0748047849
   16      C       8.6715711360    -0.1540393198    -0.0843725035
   17      H       9.4359785948     1.9017183109    -0.0247202441
   18      C       9.6626221379     0.8433440672    -0.0672420574
   19      S       9.4146286491    -1.7474729003    -0.1832197527
   20      C      10.9662263510     0.3296274319    -0.1247404772
   21      C      10.9887738142    -1.0540282849    -0.1904774363
   22      H      11.8627975181     0.9372925485    -0.1218782998
   23      H      11.8569960165    -1.6992318458    -0.2347423371
 ----------------------------------------------------------------

   10   -1656.4170637977      6.14E-09 Convergence criterion met
 Total energy in the final basis set = -1656.4170637977
 Final energy is   -1656.41706379772
 **  OPTIMIZATION CONVERGED  **

                    Orbital Energies (a.u.)
 --------------------------------------------------------------

 Alpha MOs
 -- Occupied --
-89.074 -89.065 -89.065 -10.410 -10.409 -10.391 -10.390 -10.378
-10.378 -10.367 -10.365 -10.358 -10.357 -10.344 -10.344  -8.133
 -8.124  -8.124  -6.098  -6.094  -6.090  -6.088  -6.088  -6.084
 -6.084  -6.081  -6.081  -1.064  -1.041  -1.026  -0.944  -0.914
 -0.894  -0.892  -0.883  -0.841  -0.772  -0.749  -0.711  -0.707
 -0.689  -0.677  -0.674  -0.643  -0.608  -0.572  -0.571  -0.570
 -0.561  -0.550  -0.547  -0.545  -0.535  -0.521  -0.519  -0.512
 -0.494  -0.488  -0.456  -0.422  -0.407  -0.404  -0.395  -0.345

 Beta MOs
 -- Occupied --
-89.075 -89.065 -89.065 -10.407 -10.407 -10.391 -10.390 -10.375
-10.375 -10.366 -10.365 -10.356 -10.355 -10.345 -10.344  -8.134
 -8.124  -8.124  -6.098  -6.094  -6.090  -6.088  -6.088  -6.084
 -6.084  -6.081  -6.081  -1.059  -1.037  -1.023  -0.939  -0.912
 -0.891  -0.890  -0.881  -0.833  -0.768  -0.746  -0.708  -0.704
 -0.687  -0.675  -0.672  -0.641  -0.606  -0.570  -0.568  -0.562
 -0.559  -0.548  -0.546  -0.536  -0.534  -0.519  -0.511  -0.508
 -0.493  -0.487  -0.438  -0.419  -0.402  -0.400  -0.379

          Ground-State Mulliken Net Atomic Charges

     Atom                 Charge (a.u.)    Spin (a.u.)
  --------------------------------------------------------
      1 H                     0.241931      -0.011263
      2 H                     0.162758       0.001454
      3 C                     0.057786       0.220498
      4 C                    -0.213795      -0.037301
      5 S                    -0.025689      -0.019089
      6 C                     0.539600       0.138386
      7 H                     0.150382      -0.008882
      8 C                    -0.226629       0.023228
      9 H                     0.143485      -0.004703
     10 C                    -0.084449       0.187243
     11 C                    -0.139571       0.045541
     12 S                    -0.469844      -0.064776
     13 C                     0.171860       0.057161
     14 H                     0.140208      -0.004716
     15 C                     0.057263       0.177467
     16 C                    -0.165087       0.019251
     17 H                     0.128740      -0.009676
     18 C                     0.337586       0.150594
     19 S                     0.061422      -0.027595
     20 C                    -0.351176      -0.050805
     21 C                     0.078363       0.227561
     22 H                     0.161116       0.002251
     23 H                     0.243740      -0.011829
  --------------------------------------------------------
  Sum of atomic charges =     1.000000

                    Cartesian Multipole Moments
 -----------------------------------------------------------------
    Charge (ESU x 10^10)
                 4.8032
    Dipole Moment (Debye)
         X      29.1174      Y      -1.3818      Z      -0.7188
       Tot      29.1590
    Quadrupole Moments (Debye-Ang)
        XX     159.7300     XY      -1.7321     YY     -85.9809
        XZ      -3.0735     YZ       3.7040     ZZ    -110.6200

 Total job time:  220.12s(wall), 233.15s(cpu)
        *  Thank you very much for using Q-Chem.  Have a nice day.  *
