 Q-Chem 4.4, Q-Chem, Inc., Pleasanton, CA (2016)
 Q-Chem 4.4.2 for Intel X86 EM64T Linux

User input:
--------------------------------------------------------------
$molecule
 1  2
 H           0.00000000        0.00000000        0.00000000
 H           0.66366000       -2.46828000       -0.59127000
 C           0.99103000       -0.39106000       -0.11652000
 C           1.36812000       -1.67442000       -0.42485000
 S           2.34669000        0.62586000        0.08638000
 C           2.76167000       -1.82175000       -0.50822000
 H           3.26291000       -2.73877000       -0.76199000
 C           3.44671000       -0.65043000       -0.26057000
 H           4.55645000        1.43902671        0.15704385
 C           4.88382000       -0.65043000       -0.26057000
 C           5.26091000        0.64090194        0.01245390
 S           6.23948000       -1.67253113       -0.43550939
 C           6.65446000        0.79046248        0.09175311
 H           7.15570000        1.71409653        0.32028213
 C           7.33950000       -0.38720773       -0.12368600
 C           8.77661000       -0.38720773       -0.12368600
 H           8.96041000       -0.34236513        2.02353862
 C           9.46165000       -0.39487354        1.07350369
 S           9.87663000       -0.45419001       -1.44459601
 C          10.85520000       -0.44492961        0.91179069
 C          11.23229000       -0.47267292       -0.40779630
 H          11.55966000       -0.45151719        1.72287978
 H          12.22332000       -0.50317530       -0.81470538
$end

$rem
         jobtype = opt
        exchange = b3lyp
           basis = 6-31++g**
  max_scf_cycles = 150
      mem_static = 281
       mem_total = 2818
      sym_ignore = true
        symmetry = false
          thresh = 12
$end

$opt
CONSTRAINT
tors 13 15 16 18 80.0
ENDCONSTRAINT
$end

--------------------------------------------------------------

   20   -1656.3553560107      6.85E-09 Convergence criterion met
 Total energy in the final basis set = -1656.3553560107
   20   -1656.3858818242      7.48E-09 Convergence criterion met
 Total energy in the final basis set = -1656.3858818242
   17   -1656.3978446806      5.66E-09 Convergence criterion met
 Total energy in the final basis set = -1656.3978446806
   16   -1656.3998831687      7.37E-09 Convergence criterion met
 Total energy in the final basis set = -1656.3998831687
   20   -1656.4003384620      7.97E-09 Convergence criterion met
 Total energy in the final basis set = -1656.4003384620
   16   -1656.4007471855      5.18E-09 Convergence criterion met
 Total energy in the final basis set = -1656.4007471855
   20   -1656.4008996606      7.82E-09 Convergence criterion met
 Total energy in the final basis set = -1656.4008996606
   13   -1656.4009465113      9.03E-09 Convergence criterion met
 Total energy in the final basis set = -1656.4009465113
   12   -1656.4009525232      6.75E-09 Convergence criterion met
 Total energy in the final basis set = -1656.4009525232

             Standard Nuclear Orientation (Angstroms)
    I     Atom           X                Y                Z
 ----------------------------------------------------------------
    1      H      -0.0938642318    -0.5450112750    -0.3738853933
    2      H       1.0547811891    -2.8635292345    -0.8915813046
    3      C       0.9698270013    -0.7484925023    -0.3728179925
    4      C       1.5967757621    -1.9599021524    -0.6409229336
    5      S       2.0747964251     0.5137506637    -0.0090125236
    6      C       2.9898362255    -1.8712406616    -0.5530516423
    7      H       3.6595885264    -2.7053455908    -0.7299007889
    8      C       3.4450665138    -0.5816709549    -0.2156174839
    9      H       4.5584894986     2.0143920875     0.3286912778
   10      C       4.7770347599    -0.1411274713    -0.0463989781
   11      C       5.2285652863     1.1657044960     0.2511747277
   12      S       6.1416007456    -1.2475882339    -0.1603609542
   13      C       6.6060191352     1.2558869012     0.3896655435
   14      H       7.1435216037     2.1773010327     0.5809226653
   15      C       7.2752450064     0.0256954860     0.2324055999
   16      C       8.6999914159    -0.1820928189     0.1004926917
   17      H       9.4088028681     0.1244686853     2.1355198101
   18      C       9.6395828581    -0.2030314651     1.1279922114
   19      S       9.3793331928    -0.8934299565    -1.3607739368
   20      C      10.8981501498    -0.7027359101     0.7249843780
   21      C      10.9104888336    -1.0957404072    -0.5963805201
   22      H      11.7605901065    -0.7736306863     1.3765868553
   23      H      11.7526571279    -1.4580926617    -1.1720746188
 ----------------------------------------------------------------

   10   -1656.4009533652      8.21E-09 Convergence criterion met
 Total energy in the final basis set = -1656.4009533652
 Final energy is   -1656.40095336516
 **  OPTIMIZATION CONVERGED  **

                    Orbital Energies (a.u.)
 --------------------------------------------------------------

 Alpha MOs
 -- Occupied --
-89.078 -89.074 -89.053 -10.413 -10.412 -10.403 -10.390 -10.376
-10.371 -10.368 -10.366 -10.360 -10.355 -10.344 -10.330  -8.137
 -8.134  -8.112  -6.101  -6.098  -6.097  -6.094  -6.093  -6.091
 -6.076  -6.072  -6.069  -1.066  -1.043  -1.020  -0.945  -0.915
 -0.900  -0.886  -0.876  -0.842  -0.771  -0.747  -0.713  -0.699
 -0.692  -0.683  -0.665  -0.643  -0.609  -0.575  -0.572  -0.572
 -0.560  -0.556  -0.547  -0.537  -0.531  -0.519  -0.516  -0.507
 -0.498  -0.483  -0.447  -0.424  -0.414  -0.392  -0.386  -0.358

 Beta MOs
 -- Occupied --
-89.078 -89.075 -89.053 -10.411 -10.409 -10.402 -10.387 -10.376
-10.369 -10.366 -10.365 -10.358 -10.355 -10.343 -10.330  -8.137
 -8.134  -8.112  -6.101  -6.098  -6.097  -6.094  -6.094  -6.091
 -6.076  -6.072  -6.069  -1.061  -1.039  -1.017  -0.939  -0.913
 -0.898  -0.881  -0.874  -0.835  -0.768  -0.744  -0.710  -0.697
 -0.689  -0.681  -0.663  -0.641  -0.607  -0.572  -0.570  -0.562
 -0.558  -0.553  -0.540  -0.534  -0.530  -0.516  -0.509  -0.504
 -0.497  -0.482  -0.427  -0.421  -0.410  -0.389  -0.372

          Ground-State Mulliken Net Atomic Charges

     Atom                 Charge (a.u.)    Spin (a.u.)
  --------------------------------------------------------
      1 H                     0.245810      -0.013211
      2 H                     0.167172       0.001126
      3 C                     0.068193       0.258931
      4 C                    -0.270625      -0.035827
      5 S                    -0.048832      -0.030051
      6 C                     0.499932       0.137723
      7 H                     0.147445      -0.009233
      8 C                    -0.314741       0.063570
      9 H                     0.150021      -0.006474
     10 C                     0.041369       0.168471
     11 C                    -0.081834       0.082242
     12 S                    -0.155858      -0.048382
     13 C                     0.099529       0.019875
     14 H                     0.178951      -0.001939
     15 C                    -0.553515       0.242904
     16 C                     0.361001       0.041876
     17 H                     0.172601      -0.005645
     18 C                     0.023988       0.046770
     19 S                     0.103922      -0.008778
     20 C                    -0.202813      -0.012766
     21 C                    -0.020061       0.112871
     22 H                     0.155056       0.001218
     23 H                     0.233288      -0.005272
  --------------------------------------------------------
  Sum of atomic charges =     1.000000

                    Cartesian Multipole Moments
 -----------------------------------------------------------------
    Charge (ESU x 10^10)
                 4.8032
    Dipole Moment (Debye)
         X      26.6979      Y      -2.2709      Z      -0.1970
       Tot      26.7950
    Quadrupole Moments (Debye-Ang)
        XX     126.2655     XY     -10.8548     YY     -91.7206
        XZ       4.4757     YZ       6.2248     ZZ    -102.9576

 Total job time:  256.55s(wall), 271.85s(cpu)
        *  Thank you very much for using Q-Chem.  Have a nice day.  *
