 Q-Chem 4.4, Q-Chem, Inc., Pleasanton, CA (2016)
 Q-Chem 4.4.2 for Intel X86 EM64T Linux

User input:
--------------------------------------------------------------
$molecule
 1  2
 H           0.00000000        0.00000000        0.00000000
 H           0.66366000       -2.46828000       -0.59127000
 C           0.99103000       -0.39106000       -0.11652000
 C           1.36812000       -1.67442000       -0.42485000
 S           2.34669000        0.62586000        0.08638000
 C           2.76167000       -1.82175000       -0.50822000
 H           3.26291000       -2.73877000       -0.76199000
 C           3.44671000       -0.65043000       -0.26057000
 H           4.55645000        1.43902671        0.15704385
 C           4.88382000       -0.65043000       -0.26057000
 C           5.26091000        0.64090194        0.01245390
 S           6.23948000       -1.67253113       -0.43550939
 C           6.65446000        0.79046248        0.09175311
 H           7.15570000        1.71409653        0.32028213
 C           7.33950000       -0.38720773       -0.12368600
 C           8.77661000       -0.38720773       -0.12368600
 H           8.96041000       -0.71590803        1.99870429
 C           9.46165000       -0.60264689        1.05398454
 S           9.87663000       -0.22379878       -1.43615977
 C          10.85520000       -0.62386133        0.88603617
 C          11.23229000       -0.42203927       -0.41832090
 H          11.55966000       -0.77119297        1.68365908
 H          12.22332000       -0.38141924       -0.82434480
$end

$rem
         jobtype = opt
        exchange = b3lyp
           basis = 6-31++g**
  max_scf_cycles = 150
      mem_static = 281
       mem_total = 2818
      sym_ignore = true
        symmetry = false
          thresh = 12
$end

$opt
CONSTRAINT
tors 13 15 16 18 90.0
ENDCONSTRAINT
$end

--------------------------------------------------------------

   21   -1656.3523807180      5.95E-09 Convergence criterion met
 Total energy in the final basis set = -1656.3523807180
   21   -1656.3833311151      3.70E-09 Convergence criterion met
 Total energy in the final basis set = -1656.3833311151
   17   -1656.3952204420      5.84E-09 Convergence criterion met
 Total energy in the final basis set = -1656.3952204420
   15   -1656.3966265953      7.52E-09 Convergence criterion met
 Total energy in the final basis set = -1656.3966265953
   14   -1656.3967732959      7.59E-09 Convergence criterion met
 Total energy in the final basis set = -1656.3967732959
   15   -1656.3968661738      6.51E-09 Convergence criterion met
 Total energy in the final basis set = -1656.3968661738
   20   -1656.3969435032      8.32E-09 Convergence criterion met
 Total energy in the final basis set = -1656.3969435032
   16   -1656.3970851818      7.98E-09 Convergence criterion met
 Total energy in the final basis set = -1656.3970851818
   13   -1656.3972087110      6.18E-09 Convergence criterion met
 Total energy in the final basis set = -1656.3972087110
   20   -1656.3973716063      7.71E-09 Convergence criterion met
 Total energy in the final basis set = -1656.3973716063
   12   -1656.3973759536      7.98E-09 Convergence criterion met
 Total energy in the final basis set = -1656.3973759536
   12   -1656.3973781015      6.58E-09 Convergence criterion met
 Total energy in the final basis set = -1656.3973781015

             Standard Nuclear Orientation (Angstroms)
    I     Atom           X                Y                Z
 ----------------------------------------------------------------
    1      H      -0.0895858140    -0.5224469057    -0.3972705681
    2      H       1.0479468450    -2.8568616862    -0.8663507970
    3      C       0.9731943335    -0.7310071034    -0.3855798312
    4      C       1.5947068009    -1.9524570498    -0.6290398146
    5      S       2.0818141458     0.5314107174    -0.0376613679
    6      C       2.9859990167    -1.8706540316    -0.5352726308
    7      H       3.6523228517    -2.7112508166    -0.6931392086
    8      C       3.4477193192    -0.5761308554    -0.2172720495
    9      H       4.5717291159     2.0166983827     0.3217580376
   10      C       4.7803101024    -0.1425244800    -0.0476920035
   11      C       5.2376696982     1.1646104927     0.2452164126
   12      S       6.1410427863    -1.2554891375    -0.1549119572
   13      C       6.6160330162     1.2469348949     0.3879014753
   14      H       7.1591557195     2.1636843906     0.5852250354
   15      C       7.2776313484     0.0144182422     0.2334275781
   16      C       8.7094100263    -0.2141071136     0.1241767460
   17      H       9.3450848814    -0.3086863796     2.2001869303
   18      C       9.6053802866    -0.4474693250     1.1568450477
   19      S       9.4307141892    -0.6412130037    -1.4229996408
   20      C      10.8755968568    -0.8858158337     0.7062132796
   21      C      10.9321688276    -1.0192726519    -0.6615188102
   22      H      11.7124398296    -1.0935284169     1.3619573258
   23      H      11.7883958166    -1.2814477698    -1.2695989790
 ----------------------------------------------------------------

   11   -1656.3973786456      4.30E-09 Convergence criterion met
 Total energy in the final basis set = -1656.3973786456
 Final energy is   -1656.39737864563
 **  OPTIMIZATION CONVERGED  **

                    Orbital Energies (a.u.)
 --------------------------------------------------------------

 Alpha MOs
 -- Occupied --
-89.080 -89.080 -89.047 -10.416 -10.415 -10.409 -10.397 -10.374
-10.373 -10.369 -10.367 -10.361 -10.351 -10.336 -10.323  -8.139
 -8.139  -8.105  -6.103  -6.103  -6.099  -6.099  -6.096  -6.095
 -6.070  -6.066  -6.063  -1.069  -1.046  -1.015  -0.946  -0.918
 -0.904  -0.885  -0.869  -0.841  -0.773  -0.748  -0.716  -0.697
 -0.691  -0.686  -0.662  -0.642  -0.610  -0.578  -0.575  -0.575
 -0.564  -0.554  -0.547  -0.536  -0.527  -0.519  -0.517  -0.503
 -0.502  -0.477  -0.449  -0.426  -0.418  -0.385  -0.380  -0.363

 Beta MOs
 -- Occupied --
-89.080 -89.080 -89.047 -10.414 -10.411 -10.408 -10.393 -10.373
-10.371 -10.369 -10.366 -10.361 -10.350 -10.336 -10.323  -8.139
 -8.139  -8.105  -6.103  -6.103  -6.099  -6.099  -6.096  -6.096
 -6.070  -6.066  -6.063  -1.064  -1.041  -1.013  -0.940  -0.915
 -0.902  -0.880  -0.868  -0.835  -0.769  -0.744  -0.712  -0.694
 -0.689  -0.685  -0.660  -0.640  -0.608  -0.575  -0.573  -0.564
 -0.562  -0.552  -0.537  -0.535  -0.526  -0.518  -0.510  -0.501
 -0.500  -0.476  -0.427  -0.423  -0.415  -0.383  -0.367

          Ground-State Mulliken Net Atomic Charges

     Atom                 Charge (a.u.)    Spin (a.u.)
  --------------------------------------------------------
      1 H                     0.249083      -0.013957
      2 H                     0.169221       0.000985
      3 C                     0.083699       0.277725
      4 C                    -0.301827      -0.035872
      5 S                    -0.053803      -0.035184
      6 C                     0.535802       0.140661
      7 H                     0.150227      -0.009413
      8 C                    -0.334477       0.081276
      9 H                     0.150854      -0.007720
     10 C                     0.119394       0.159702
     11 C                    -0.126833       0.097117
     12 S                    -0.108739      -0.045980
     13 C                     0.156753       0.002182
     14 H                     0.174439      -0.000689
     15 C                    -0.578901       0.279732
     16 C                     0.175758       0.038751
     17 H                     0.168530      -0.003642
     18 C                     0.121395       0.011704
     19 S                     0.110864       0.000702
     20 C                    -0.217247      -0.003776
     21 C                    -0.026681       0.067322
     22 H                     0.153750       0.000906
     23 H                     0.228741      -0.002533
  --------------------------------------------------------
  Sum of atomic charges =     1.000000

                    Cartesian Multipole Moments
 -----------------------------------------------------------------
    Charge (ESU x 10^10)
                 4.8032
    Dipole Moment (Debye)
         X      25.4548      Y      -2.3460      Z      -0.2685
       Tot      25.5641
    Quadrupole Moments (Debye-Ang)
        XX     109.8644     XY     -10.9247     YY     -91.8657
        XZ       3.7833     YZ       4.8568     ZZ    -102.6422

 Total job time:  324.43s(wall), 344.20s(cpu)
        *  Thank you very much for using Q-Chem.  Have a nice day.  *
