 Q-Chem 4.4, Q-Chem, Inc., Pleasanton, CA (2016)
 Q-Chem 4.4.2 for Intel X86 EM64T Linux

User input:
--------------------------------------------------------------
$molecule
 1  2
 H           0.00000000        0.00000000        0.00000000
 H           0.66366000       -2.46828000       -0.59127000
 C           0.99103000       -0.39106000       -0.11652000
 C           1.36812000       -1.67442000       -0.42485000
 S           2.34669000        0.62586000        0.08638000
 C           2.76167000       -1.82175000       -0.50822000
 H           3.26291000       -2.73877000       -0.76199000
 C           3.44671000       -0.65043000       -0.26057000
 H           4.55645000        1.43902671        0.15704385
 C           4.88382000       -0.65043000       -0.26057000
 C           5.26091000        0.64090194        0.01245390
 S           6.23948000       -1.67253113       -0.43550939
 C           6.65446000        0.79046248        0.09175311
 H           7.15570000        1.71409653        0.32028213
 C           7.33950000       -0.38720773       -0.12368600
 C           8.77661000       -0.38720773       -0.12368600
 H           8.96041000       -0.05850742       -2.24607628
 C           9.46165000       -0.17176856       -1.30135653
 S           9.87663000       -0.55061667        1.18878778
 C          10.85520000       -0.15055413       -1.13340817
 C          11.23229000       -0.35237618        0.17094891
 H          11.55966000       -0.00322249       -1.93103107
 H          12.22332000       -0.39299621        0.57697281
$end

$rem
         jobtype = opt
        exchange = b3lyp
           basis = 6-31++g**
  max_scf_cycles = 150
      mem_static = 281
       mem_total = 2818
      sym_ignore = true
        symmetry = false
          thresh = 12
$end

$opt
CONSTRAINT
tors 13 15 16 18 -90.0
ENDCONSTRAINT
$end

--------------------------------------------------------------

   21   -1656.3523476442      6.04E-09 Convergence criterion met
 Total energy in the final basis set = -1656.3523476442
   21   -1656.3834327075      3.13E-09 Convergence criterion met
 Total energy in the final basis set = -1656.3834327075
   16   -1656.3953626899      9.30E-09 Convergence criterion met
 Total energy in the final basis set = -1656.3953626899
   15   -1656.3968168839      7.45E-09 Convergence criterion met
 Total energy in the final basis set = -1656.3968168839
   14   -1656.3970358309      8.64E-09 Convergence criterion met
 Total energy in the final basis set = -1656.3970358309
   16   -1656.3973251414      5.19E-09 Convergence criterion met
 Total energy in the final basis set = -1656.3973251414
   16   -1656.3975898590      8.81E-09 Convergence criterion met
 Total energy in the final basis set = -1656.3975898590
   15   -1656.3977902912      6.55E-09 Convergence criterion met
 Total energy in the final basis set = -1656.3977902912
   15   -1656.3979825710      6.02E-09 Convergence criterion met
 Total energy in the final basis set = -1656.3979825710
   11   -1656.3979932738      9.97E-09 Convergence criterion met
 Total energy in the final basis set = -1656.3979932738
   12   -1656.3979982544      6.11E-09 Convergence criterion met
 Total energy in the final basis set = -1656.3979982544

             Standard Nuclear Orientation (Angstroms)
    I     Atom           X                Y                Z
 ----------------------------------------------------------------
    1      H      -0.1012251496    -0.3847155605    -0.1919950123
    2      H       0.9148085524    -2.7284486048    -0.8545177746
    3      C       0.9512039357    -0.6341604341    -0.2485404603
    4      C       1.5090572385    -1.8611583588    -0.5940695733
    5      S       2.1275371612     0.5618201925     0.1135321700
    6      C       2.9059643886    -1.8381701661    -0.5683828536
    7      H       3.5279789025    -2.6932705361    -0.8081310659
    8      C       3.4356238317    -0.5838147614    -0.2005878292
    9      H       4.6937675923     1.9298490916     0.4193769110
   10      C       4.7919640314    -0.2119844690    -0.0753678103
   11      C       5.3181343018     1.0571530531     0.2642011695
   12      S       6.0993990868    -1.3683581625    -0.3111233360
   13      C       6.7035261588     1.0790588024     0.3414533697
   14      H       7.2918456657     1.9617461920     0.5632858653
   15      C       7.3036805921    -0.1672470563     0.0780482385
   16      C       8.7088733314    -0.4501708392    -0.1545987065
   17      H       8.8400313849    -0.4531760682    -2.3267910961
   18      C       9.3660794020    -0.4534381282    -1.3786597587
   19      S       9.8626127623    -0.3443240004     1.1640152780
   20      C      10.7766840063    -0.4401556648    -1.2519542360
   21      C      11.1887446294    -0.3978095685     0.0594782098
   22      H      11.4591286962    -0.4595856226    -2.0930561077
   23      H      12.2014594975    -0.4314199202     0.4402634585
 ----------------------------------------------------------------

   10   -1656.3979989593      5.41E-09 Convergence criterion met
 Total energy in the final basis set = -1656.3979989593
 Final energy is   -1656.39799895935
 **  OPTIMIZATION CONVERGED  **

                    Orbital Energies (a.u.)
 --------------------------------------------------------------

 Alpha MOs
 -- Occupied --
-89.080 -89.078 -89.047 -10.415 -10.415 -10.407 -10.395 -10.373
-10.372 -10.371 -10.367 -10.359 -10.352 -10.340 -10.324  -8.139
 -8.137  -8.106  -6.103  -6.102  -6.099  -6.098  -6.095  -6.095
 -6.070  -6.067  -6.063  -1.069  -1.046  -1.016  -0.946  -0.917
 -0.903  -0.885  -0.871  -0.841  -0.772  -0.749  -0.716  -0.697
 -0.690  -0.686  -0.664  -0.642  -0.609  -0.577  -0.575  -0.574
 -0.562  -0.554  -0.547  -0.537  -0.529  -0.520  -0.518  -0.503
 -0.501  -0.477  -0.449  -0.426  -0.417  -0.388  -0.380  -0.362

 Beta MOs
 -- Occupied --
-89.080 -89.078 -89.047 -10.413 -10.411 -10.406 -10.391 -10.372
-10.371 -10.370 -10.367 -10.359 -10.351 -10.339 -10.324  -8.139
 -8.137  -8.106  -6.103  -6.102  -6.099  -6.098  -6.096  -6.095
 -6.070  -6.066  -6.063  -1.064  -1.041  -1.014  -0.940  -0.915
 -0.902  -0.881  -0.870  -0.835  -0.768  -0.745  -0.713  -0.694
 -0.688  -0.685  -0.662  -0.641  -0.608  -0.574  -0.572  -0.564
 -0.560  -0.552  -0.538  -0.535  -0.528  -0.518  -0.510  -0.500
 -0.499  -0.476  -0.428  -0.422  -0.414  -0.385  -0.368

          Ground-State Mulliken Net Atomic Charges

     Atom                 Charge (a.u.)    Spin (a.u.)
  --------------------------------------------------------
      1 H                     0.247981      -0.013928
      2 H                     0.168197       0.001077
      3 C                     0.088473       0.274891
      4 C                    -0.352835      -0.037530
      5 S                    -0.050295      -0.035274
      6 C                     0.634647       0.143591
      7 H                     0.153012      -0.009551
      8 C                    -0.340401       0.080730
      9 H                     0.150038      -0.006587
     10 C                    -0.078352       0.149986
     11 C                    -0.031774       0.111502
     12 S                    -0.003625      -0.050659
     13 C                     0.188456      -0.002326
     14 H                     0.180688      -0.001610
     15 C                    -0.402994       0.267763
     16 C                    -0.137078       0.033236
     17 H                     0.157835      -0.003740
     18 C                     0.220478       0.038347
     19 S                     0.152418      -0.010072
     20 C                    -0.297110      -0.011455
     21 C                    -0.025335       0.083217
     22 H                     0.152635       0.001997
     23 H                     0.224939      -0.003605
  --------------------------------------------------------
  Sum of atomic charges =     1.000000

                    Cartesian Multipole Moments
 -----------------------------------------------------------------
    Charge (ESU x 10^10)
                 4.8032
    Dipole Moment (Debye)
         X      25.8024      Y      -1.7086      Z      -1.4708
       Tot      25.9007
    Quadrupole Moments (Debye-Ang)
        XX     116.4590     XY      -2.8600     YY     -94.3743
        XZ      -8.4820     YZ       5.1573     ZZ    -102.4141

 Total job time:  288.33s(wall), 305.52s(cpu)
        *  Thank you very much for using Q-Chem.  Have a nice day.  *
