 Q-Chem 4.4, Q-Chem, Inc., Pleasanton, CA (2016)
 Q-Chem 4.4.2 for Intel X86 EM64T Linux

User input:
--------------------------------------------------------------
$molecule
 1  2
 H           0.00000000        0.00000000        0.00000000
 H           0.66366000       -2.46828000       -0.59127000
 C           0.99103000       -0.39106000       -0.11652000
 C           1.36812000       -1.67442000       -0.42485000
 S           2.34669000        0.62586000        0.08638000
 C           2.76167000       -1.82175000       -0.50822000
 H           3.26291000       -2.73877000       -0.76199000
 C           3.44671000       -0.65043000       -0.26057000
 H           4.55645000        1.43902671        0.15704385
 C           4.88382000       -0.65043000       -0.26057000
 C           5.26091000        0.64090194        0.01245390
 S           6.23948000       -1.67253113       -0.43550939
 C           6.65446000        0.79046248        0.09175311
 H           7.15570000        1.71409653        0.32028213
 C           7.33950000       -0.38720773       -0.12368600
 C           8.77661000       -0.38720773       -0.12368600
 H           8.96041000        1.49476464        0.91109148
 C           9.46165000        0.64575605        0.48154764
 S           9.87663000       -1.56464050       -0.72613264
 C          10.85520000        0.48068045        0.44404097
 C          11.23229000       -0.67598706       -0.19172612
 H          11.55966000        1.17981042        0.85529052
 H          12.22332000       -1.04363185       -0.36876482
$end

$rem
         jobtype = opt
        exchange = b3lyp
           basis = 6-31++g**
  max_scf_cycles = 150
      mem_static = 281
       mem_total = 2818
      sym_ignore = true
        symmetry = false
          thresh = 12
$end

$opt
CONSTRAINT
tors 13 15 16 18 20.0
ENDCONSTRAINT
$end

--------------------------------------------------------------

   18   -1656.3708784662      8.84E-09 Convergence criterion met
 Total energy in the final basis set = -1656.3708784662
   16   -1656.4031278385      8.27E-09 Convergence criterion met
 Total energy in the final basis set = -1656.4031278385
   16   -1656.4150473854      8.99E-09 Convergence criterion met
 Total energy in the final basis set = -1656.4150473854
   14   -1656.4163600972      9.06E-09 Convergence criterion met
 Total energy in the final basis set = -1656.4163600972
   13   -1656.4164561036      5.92E-09 Convergence criterion met
 Total energy in the final basis set = -1656.4164561036
   12   -1656.4164767512      7.36E-09 Convergence criterion met
 Total energy in the final basis set = -1656.4164767512
   10   -1656.4164798507      7.25E-09 Convergence criterion met
 Total energy in the final basis set = -1656.4164798507

             Standard Nuclear Orientation (Angstroms)
    I     Atom           X                Y                Z
 ----------------------------------------------------------------
    1      H      -0.1236220124    -0.5578017503    -0.2500373197
    2      H       1.0009941904    -2.8941499074    -0.7366197242
    3      C       0.9383307813    -0.7668242317    -0.2792065616
    4      C       1.5518748447    -1.9845049776    -0.5312522108
    5      S       2.0608105486     0.5004549770     0.0110713654
    6      C       2.9507685420    -1.8982491594    -0.4908942142
    7      H       3.6100297077    -2.7413002939    -0.6654730703
    8      C       3.4194644118    -0.6054484213    -0.2059840192
    9      H       4.5510186034     1.9925485930     0.2858230029
   10      C       4.7581875548    -0.1615818209    -0.0925031728
   11      C       5.2215060081     1.1497208762     0.1635994570
   12      S       6.1149969264    -1.2686188099    -0.2540376243
   13      C       6.5996028446     1.2526110995     0.2204363843
   14      H       7.1278219047     2.1843559683     0.3813066878
   15      C       7.2696418516     0.0225974374     0.0165922541
   16      C       8.6730247073    -0.1744373701    -0.0392831078
   17      H       9.4281770633     1.6372393767     0.9367974412
   18      C       9.6594611634     0.6879999304     0.4685362959
   19      S       9.4135760083    -1.6389368221    -0.6766853331
   20      C      10.9609160105     0.1823561730     0.3300845553
   21      C      10.9840793973    -1.0643949303    -0.2732088993
   22      H      11.8546690138     0.6978600826     0.6595816829
   23      H      11.8515499283    -1.6664827991    -0.5122552394
 ----------------------------------------------------------------

    9   -1656.4164807080      8.53E-09 Convergence criterion met
 Total energy in the final basis set = -1656.4164807080
 Final energy is   -1656.41648070804
 **  OPTIMIZATION CONVERGED  **

                    Orbital Energies (a.u.)
 --------------------------------------------------------------

 Alpha MOs
 -- Occupied --
-89.074 -89.065 -89.064 -10.410 -10.409 -10.391 -10.390 -10.378
-10.377 -10.366 -10.366 -10.358 -10.358 -10.345 -10.343  -8.134
 -8.124  -8.123  -6.098  -6.094  -6.090  -6.088  -6.087  -6.084
 -6.084  -6.081  -6.080  -1.064  -1.041  -1.026  -0.944  -0.914
 -0.893  -0.892  -0.883  -0.841  -0.772  -0.748  -0.710  -0.707
 -0.689  -0.677  -0.673  -0.643  -0.608  -0.572  -0.571  -0.570
 -0.561  -0.550  -0.548  -0.544  -0.534  -0.521  -0.519  -0.511
 -0.494  -0.488  -0.455  -0.422  -0.407  -0.404  -0.395  -0.346

 Beta MOs
 -- Occupied --
-89.075 -89.065 -89.064 -10.407 -10.407 -10.391 -10.390 -10.375
-10.374 -10.365 -10.365 -10.356 -10.356 -10.345 -10.344  -8.134
 -8.124  -8.123  -6.098  -6.095  -6.091  -6.088  -6.088  -6.085
 -6.084  -6.081  -6.080  -1.059  -1.037  -1.022  -0.939  -0.912
 -0.891  -0.890  -0.881  -0.833  -0.768  -0.745  -0.708  -0.705
 -0.687  -0.675  -0.672  -0.641  -0.606  -0.570  -0.568  -0.562
 -0.559  -0.548  -0.546  -0.537  -0.533  -0.519  -0.511  -0.508
 -0.493  -0.488  -0.437  -0.419  -0.402  -0.400  -0.379

          Ground-State Mulliken Net Atomic Charges

     Atom                 Charge (a.u.)    Spin (a.u.)
  --------------------------------------------------------
      1 H                     0.241356      -0.011424
      2 H                     0.162870       0.001454
      3 C                     0.056398       0.221943
      4 C                    -0.222964      -0.036962
      5 S                    -0.029621      -0.019420
      6 C                     0.483888       0.137606
      7 H                     0.145983      -0.008966
      8 C                    -0.207374       0.026061
      9 H                     0.143994      -0.004606
     10 C                    -0.066203       0.182944
     11 C                    -0.092000       0.049370
     12 S                    -0.372292      -0.061730
     13 C                     0.170787       0.058823
     14 H                     0.147780      -0.004509
     15 C                    -0.023571       0.178227
     16 C                    -0.172418       0.019721
     17 H                     0.138666      -0.009192
     18 C                     0.281254       0.145417
     19 S                     0.043075      -0.026951
     20 C                    -0.310196      -0.049121
     21 C                     0.078826       0.220770
     22 H                     0.160391       0.002146
     23 H                     0.241370      -0.011601
  --------------------------------------------------------
  Sum of atomic charges =     1.000000

                    Cartesian Multipole Moments
 -----------------------------------------------------------------
    Charge (ESU x 10^10)
                 4.8032
    Dipole Moment (Debye)
         X      29.0239      Y      -1.5277      Z      -0.3616
       Tot      29.0664
    Quadrupole Moments (Debye-Ang)
        XX     158.4264     XY      -3.4497     YY     -87.5107
        XZ       1.4785     YZ       6.6650     ZZ    -108.9931

 Total job time:  175.89s(wall), 185.96s(cpu)
        *  Thank you very much for using Q-Chem.  Have a nice day.  *
