 Q-Chem 4.4, Q-Chem, Inc., Pleasanton, CA (2016)
 Q-Chem 4.4.2 for Intel X86 EM64T Linux

User input:
--------------------------------------------------------------
$molecule
 1  2
 H           0.00000000        0.00000000        0.00000000
 H           0.66366000       -2.46828000       -0.59127000
 C           0.99103000       -0.39106000       -0.11652000
 C           1.36812000       -1.67442000       -0.42485000
 S           2.34669000        0.62586000        0.08638000
 C           2.76167000       -1.82175000       -0.50822000
 H           3.26291000       -2.73877000       -0.76199000
 C           3.44671000       -0.65043000       -0.26057000
 H           4.55645000        1.43902671        0.15704385
 C           4.88382000       -0.65043000       -0.26057000
 C           5.26091000        0.64090194        0.01245390
 S           6.23948000       -1.67253113       -0.43550939
 C           6.65446000        0.79046248        0.09175311
 H           7.15570000        1.71409653        0.32028213
 C           7.33950000       -0.38720773       -0.12368600
 C           8.77661000       -0.38720773       -0.12368600
 H           8.96041000       -2.26918009       -1.15846348
 C           9.46165000       -1.42017150       -0.72891963
 S           9.87663000        0.79022504        0.47876065
 C          10.85520000       -1.25509590       -0.69141296
 C          11.23229000       -0.09842839       -0.05564587
 H          11.55966000       -1.95422587       -1.10266251
 H          12.22332000        0.26921640        0.12139283
$end

$rem
         jobtype = opt
        exchange = b3lyp
           basis = 6-31++g**
  max_scf_cycles = 150
      mem_static = 281
       mem_total = 2818
      sym_ignore = true
        symmetry = false
          thresh = 12
$end

$opt
CONSTRAINT
tors 13 15 16 18 -160.0
ENDCONSTRAINT
$end

--------------------------------------------------------------

   18   -1656.3710140127      9.74E-09 Convergence criterion met
 Total energy in the final basis set = -1656.3710140127
   17   -1656.4029787864      5.48E-09 Convergence criterion met
 Total energy in the final basis set = -1656.4029787864
   16   -1656.4156703748      8.21E-09 Convergence criterion met
 Total energy in the final basis set = -1656.4156703748
   15   -1656.4171224969      5.71E-09 Convergence criterion met
 Total energy in the final basis set = -1656.4171224969
   13   -1656.4172173759      6.04E-09 Convergence criterion met
 Total energy in the final basis set = -1656.4172173759
   12   -1656.4172371731      7.21E-09 Convergence criterion met
 Total energy in the final basis set = -1656.4172371731
   10   -1656.4172398373      8.06E-09 Convergence criterion met
 Total energy in the final basis set = -1656.4172398373

             Standard Nuclear Orientation (Angstroms)
    I     Atom           X                Y                Z
 ----------------------------------------------------------------
    1      H      -0.0909302854    -0.3998519333    -0.1702226767
    2      H       0.9192170382    -2.7752046751    -0.7156003753
    3      C       0.9599682654    -0.6544759164    -0.2255739677
    4      C       1.5137820866    -1.8937510090    -0.5092197290
    5      S       2.1429874546     0.5576425233     0.0583299000
    6      C       2.9156758800    -1.8691786036    -0.4985548541
    7      H       3.5331122561    -2.7377557233    -0.6991347625
    8      C       3.4468114058    -0.6027646867    -0.2050220148
    9      H       4.6984091113     1.9341521007     0.3083455645
   10      C       4.8060808723    -0.2203060261    -0.1113239303
   11      C       5.3293853044     1.0655764949     0.1588091743
   12      S       6.1096296899    -1.3811018936    -0.3184458201
   13      C       6.7119620051     1.1084523977     0.1920272915
   14      H       7.2824880209     2.0136458522     0.3649056418
   15      C       7.3246017394    -0.1425703936    -0.0506690965
   16      C       8.7091935519    -0.4282339630    -0.1483884946
   17      H       8.7756712948    -2.3521750497    -1.1949803473
   18      C       9.3300930310    -1.5344948169    -0.7480434641
   19      S       9.9237297611     0.7156616078     0.4261037554
   20      C      10.7311176909    -1.4586305334    -0.7334461051
   21      C      11.1931361107    -0.3001572590    -0.1287816175
   22      H      11.3880032069    -2.2110190343    -1.1523790072
   23      H      12.2227545083    -0.0028586999     0.0253555654
 ----------------------------------------------------------------

    9   -1656.4172407979      6.07E-09 Convergence criterion met
 Total energy in the final basis set = -1656.4172407979
 Final energy is   -1656.41724079793
 **  OPTIMIZATION CONVERGED  **

                    Orbital Energies (a.u.)
 --------------------------------------------------------------

 Alpha MOs
 -- Occupied --
-89.074 -89.065 -89.064 -10.410 -10.410 -10.391 -10.390 -10.379
-10.377 -10.366 -10.366 -10.358 -10.357 -10.345 -10.344  -8.133
 -8.124  -8.123  -6.097  -6.094  -6.089  -6.089  -6.087  -6.085
 -6.084  -6.082  -6.080  -1.064  -1.041  -1.026  -0.944  -0.915
 -0.893  -0.891  -0.883  -0.842  -0.772  -0.749  -0.713  -0.703
 -0.687  -0.678  -0.673  -0.646  -0.606  -0.572  -0.571  -0.571
 -0.560  -0.551  -0.548  -0.545  -0.536  -0.523  -0.519  -0.509
 -0.492  -0.490  -0.455  -0.422  -0.406  -0.404  -0.395  -0.346

 Beta MOs
 -- Occupied --
-89.074 -89.065 -89.064 -10.407 -10.407 -10.391 -10.389 -10.376
-10.374 -10.366 -10.365 -10.356 -10.355 -10.346 -10.344  -8.133
 -8.124  -8.123  -6.098  -6.094  -6.090  -6.089  -6.087  -6.085
 -6.084  -6.082  -6.080  -1.059  -1.037  -1.022  -0.939  -0.913
 -0.891  -0.890  -0.880  -0.835  -0.769  -0.746  -0.710  -0.700
 -0.685  -0.676  -0.672  -0.644  -0.604  -0.569  -0.569  -0.562
 -0.558  -0.549  -0.546  -0.537  -0.534  -0.521  -0.508  -0.508
 -0.491  -0.489  -0.437  -0.419  -0.402  -0.400  -0.379

          Ground-State Mulliken Net Atomic Charges

     Atom                 Charge (a.u.)    Spin (a.u.)
  --------------------------------------------------------
      1 H                     0.241581      -0.011381
      2 H                     0.162764       0.001425
      3 C                     0.065116       0.219985
      4 C                    -0.249177      -0.035454
      5 S                    -0.027266      -0.019267
      6 C                     0.515590       0.135432
      7 H                     0.146171      -0.008906
      8 C                    -0.198043       0.026833
      9 H                     0.142963      -0.005086
     10 C                    -0.099819       0.178002
     11 C                    -0.067510       0.058263
     12 S                    -0.323887      -0.060938
     13 C                     0.097301       0.056043
     14 H                     0.153073      -0.004552
     15 C                    -0.139484       0.176182
     16 C                    -0.263462       0.026965
     17 H                     0.155147      -0.008580
     18 C                     0.540573       0.128049
     19 S                     0.021367      -0.017524
     20 C                    -0.318964      -0.033403
     21 C                     0.050079       0.207621
     22 H                     0.159504       0.001433
     23 H                     0.236385      -0.011142
  --------------------------------------------------------
  Sum of atomic charges =     1.000000

                    Cartesian Multipole Moments
 -----------------------------------------------------------------
    Charge (ESU x 10^10)
                 4.8032
    Dipole Moment (Debye)
         X      29.0636      Y      -2.5172      Z      -1.2464
       Tot      29.1991
    Quadrupole Moments (Debye-Ang)
        XX     159.2609     XY     -12.3333     YY     -87.8997
        XZ      -7.8880     YZ       7.3141     ZZ    -108.5701

 Total job time:  177.33s(wall), 188.16s(cpu)
        *  Thank you very much for using Q-Chem.  Have a nice day.  *
