 Q-Chem 4.4, Q-Chem, Inc., Pleasanton, CA (2016)
 Q-Chem 4.4.2 for Intel X86 EM64T Linux

User input:
--------------------------------------------------------------
$molecule
 1  2
 H           0.00000000        0.00000000        0.00000000
 H           0.66366000       -2.46828000       -0.59127000
 C           0.99103000       -0.39106000       -0.11652000
 C           1.36812000       -1.67442000       -0.42485000
 S           2.34669000        0.62586000        0.08638000
 C           2.76167000       -1.82175000       -0.50822000
 H           3.26291000       -2.73877000       -0.76199000
 C           3.44671000       -0.65043000       -0.26057000
 H           4.55645000        1.43902671        0.15704385
 C           4.88382000       -0.65043000       -0.26057000
 C           5.26091000        0.64090194        0.01245390
 S           6.23948000       -1.67253113       -0.43550939
 C           6.65446000        0.79046248        0.09175311
 H           7.15570000        1.71409653        0.32028213
 C           7.33950000       -0.38720773       -0.12368600
 C           8.77661000       -0.38720773       -0.12368600
 H           8.96041000        1.64586047        0.56856982
 C           9.46165000        0.73516073        0.29298050
 S           9.87663000       -1.65136641       -0.51252107
 C          10.85520000        0.56608003        0.28470872
 C          11.23229000       -0.68341490       -0.14054643
 H          11.55966000        1.32600138        0.56830782
 H          12.22332000       -1.07621679       -0.25105467
$end

$rem
         jobtype = opt
        exchange = b3lyp
           basis = 6-31++g**
  max_scf_cycles = 150
      mem_static = 281
       mem_total = 2818
      sym_ignore = true
        symmetry = false
          thresh = 12
$end

$opt
CONSTRAINT
tors 13 15 16 18 10.0
ENDCONSTRAINT
$end

--------------------------------------------------------------

   18   -1656.3705790340      8.11E-09 Convergence criterion met
 Total energy in the final basis set = -1656.3705790340
   17   -1656.4033819071      9.64E-09 Convergence criterion met
 Total energy in the final basis set = -1656.4033819071
   16   -1656.4155695036      6.41E-09 Convergence criterion met
 Total energy in the final basis set = -1656.4155695036
   15   -1656.4169575889      6.69E-09 Convergence criterion met
 Total energy in the final basis set = -1656.4169575889
   13   -1656.4170593793      5.56E-09 Convergence criterion met
 Total energy in the final basis set = -1656.4170593793
   13   -1656.4170856330      4.74E-09 Convergence criterion met
 Total energy in the final basis set = -1656.4170856330
   11   -1656.4170916834      6.67E-09 Convergence criterion met
 Total energy in the final basis set = -1656.4170916834
   11   -1656.4170941212      4.60E-09 Convergence criterion met
 Total energy in the final basis set = -1656.4170941212

             Standard Nuclear Orientation (Angstroms)
    I     Atom           X                Y                Z
 ----------------------------------------------------------------
    1      H      -0.1251432570    -0.5619841872    -0.2446972879
    2      H       1.0002134529    -2.9034641822    -0.7041878700
    3      C       0.9368468078    -0.7709361047    -0.2726253943
    4      C       1.5507966363    -1.9910897529    -0.5104303471
    5      S       2.0590885061     0.5001935322     0.0016518301
    6      C       2.9498037123    -1.9037386569    -0.4719957329
    7      H       3.6092937389    -2.7489885701    -0.6347150754
    8      C       3.4180303108    -0.6075409674    -0.2027130575
    9      H       4.5464539644     1.9919839181     0.2854894143
   10      C       4.7565408056    -0.1608659621    -0.0980236235
   11      C       5.2185657311     1.1522469372     0.1516463959
   12      S       6.1145561994    -1.2635801839    -0.2713693678
   13      C       6.5963424236     1.2592701606     0.1964921945
   14      H       7.1206404801     2.1919142557     0.3632614848
   15      C       7.2692907811     0.0314257995    -0.0143022382
   16      C       8.6718900416    -0.1676180490    -0.0539600164
   17      H       9.4363929283     1.7716822594     0.6308197759
   18      C       9.6627458499     0.7657217869     0.2985454920
   19      S       9.4139470414    -1.6955006118    -0.5184047847
   20      C      10.9656063831     0.2582790459     0.1881418699
   21      C      10.9875300606    -1.0583206232    -0.2426218728
   22      H      11.8621255237     0.8227273097     0.4135507379
   23      H      11.8553218782    -1.6814515738    -0.4180662368
 ----------------------------------------------------------------

   10   -1656.4170949780      7.71E-09 Convergence criterion met
 Total energy in the final basis set = -1656.4170949780
 Final energy is   -1656.41709497796
 **  OPTIMIZATION CONVERGED  **

                    Orbital Energies (a.u.)
 --------------------------------------------------------------

 Alpha MOs
 -- Occupied --
-89.074 -89.065 -89.064 -10.410 -10.409 -10.391 -10.390 -10.378
-10.378 -10.367 -10.365 -10.358 -10.357 -10.344 -10.344  -8.133
 -8.124  -8.124  -6.098  -6.094  -6.090  -6.088  -6.088  -6.084
 -6.084  -6.081  -6.081  -1.064  -1.041  -1.026  -0.944  -0.914
 -0.894  -0.892  -0.883  -0.841  -0.772  -0.749  -0.711  -0.707
 -0.689  -0.677  -0.674  -0.643  -0.608  -0.572  -0.571  -0.570
 -0.561  -0.550  -0.547  -0.545  -0.535  -0.521  -0.519  -0.512
 -0.494  -0.488  -0.456  -0.422  -0.407  -0.404  -0.395  -0.345

 Beta MOs
 -- Occupied --
-89.075 -89.065 -89.065 -10.407 -10.407 -10.390 -10.390 -10.375
-10.375 -10.366 -10.365 -10.356 -10.355 -10.345 -10.344  -8.134
 -8.124  -8.124  -6.098  -6.094  -6.090  -6.088  -6.088  -6.084
 -6.084  -6.081  -6.081  -1.059  -1.037  -1.022  -0.939  -0.912
 -0.891  -0.890  -0.881  -0.833  -0.768  -0.746  -0.708  -0.704
 -0.687  -0.675  -0.672  -0.641  -0.606  -0.570  -0.568  -0.562
 -0.559  -0.548  -0.546  -0.536  -0.534  -0.519  -0.511  -0.508
 -0.493  -0.487  -0.438  -0.419  -0.402  -0.400  -0.379

          Ground-State Mulliken Net Atomic Charges

     Atom                 Charge (a.u.)    Spin (a.u.)
  --------------------------------------------------------
      1 H                     0.241834      -0.011263
      2 H                     0.162725       0.001450
      3 C                     0.057408       0.220418
      4 C                    -0.216549      -0.037219
      5 S                    -0.023990      -0.019029
      6 C                     0.531657       0.138135
      7 H                     0.150015      -0.008884
      8 C                    -0.221884       0.023462
      9 H                     0.143284      -0.004699
     10 C                    -0.079591       0.187065
     11 C                    -0.143818       0.045550
     12 S                    -0.461154      -0.064460
     13 C                     0.165608       0.057286
     14 H                     0.139886      -0.004724
     15 C                     0.056792       0.176934
     16 C                    -0.162769       0.019530
     17 H                     0.129174      -0.009664
     18 C                     0.341797       0.150503
     19 S                     0.055494      -0.027669
     20 C                    -0.351432      -0.050623
     21 C                     0.080683       0.227481
     22 H                     0.161005       0.002238
     23 H                     0.243827      -0.011820
  --------------------------------------------------------
  Sum of atomic charges =     1.000000

                    Cartesian Multipole Moments
 -----------------------------------------------------------------
    Charge (ESU x 10^10)
                 4.8032
    Dipole Moment (Debye)
         X      29.1160      Y      -1.4503      Z      -0.4710
       Tot      29.1559
    Quadrupole Moments (Debye-Ang)
        XX     159.7044     XY      -2.5829     YY     -86.7897
        XZ       0.0851     YZ       5.8226     ZZ    -109.8143

 Total job time:  199.07s(wall), 210.19s(cpu)
        *  Thank you very much for using Q-Chem.  Have a nice day.  *
