 Q-Chem 4.4, Q-Chem, Inc., Pleasanton, CA (2016)
 Q-Chem 4.4.2 for Intel X86 EM64T Linux

User input:
--------------------------------------------------------------
$molecule
 1  2
 H           0.00000000        0.00000000        0.00000000
 H           0.66366000       -2.46828000       -0.59127000
 C           0.99103000       -0.39106000       -0.11652000
 C           1.36812000       -1.67442000       -0.42485000
 S           2.34669000        0.62586000        0.08638000
 C           2.76167000       -1.82175000       -0.50822000
 H           3.26291000       -2.73877000       -0.76199000
 C           3.44671000       -0.65043000       -0.26057000
 H           4.55645000        1.43902671        0.15704385
 C           4.88382000       -0.65043000       -0.26057000
 C           5.26091000        0.64090194        0.01245390
 S           6.23948000       -1.67253113       -0.43550939
 C           6.65446000        0.79046248        0.09175311
 H           7.15570000        1.71409653        0.32028213
 C           7.33950000       -0.38720773       -0.12368600
 C           8.77661000       -0.38720773       -0.12368600
 H           8.96041000       -1.16374006       -2.12608005
 C           9.46165000       -0.78946721       -1.25129818
 S           9.87663000        0.12751286        1.09465411
 C          10.85520000       -0.68712078       -1.11645785
 C          11.23229000       -0.20972527        0.11405954
 H          11.55966000       -0.95833929       -1.88088537
 H          12.22332000       -0.04189130        0.48599657
$end

$rem
         jobtype = opt
        exchange = b3lyp
           basis = 6-31++g**
  max_scf_cycles = 150
      mem_static = 281
       mem_total = 2818
      sym_ignore = true
        symmetry = false
          thresh = 12
$end

$opt
CONSTRAINT
tors 13 15 16 18 -120.0
ENDCONSTRAINT
$end

--------------------------------------------------------------

   20   -1656.3615061909      6.16E-09 Convergence criterion met
 Total energy in the final basis set = -1656.3615061909
   16   -1656.3929033248      9.98E-09 Convergence criterion met
 Total energy in the final basis set = -1656.3929033248
   20   -1656.4057472131      7.30E-09 Convergence criterion met
 Total energy in the final basis set = -1656.4057472131
   15   -1656.4081378095      8.24E-09 Convergence criterion met
 Total energy in the final basis set = -1656.4081378095
   14   -1656.4085883711      9.95E-09 Convergence criterion met
 Total energy in the final basis set = -1656.4085883711
   15   -1656.4088257300      7.53E-09 Convergence criterion met
 Total energy in the final basis set = -1656.4088257300
   13   -1656.4088593363      7.48E-09 Convergence criterion met
 Total energy in the final basis set = -1656.4088593363
   12   -1656.4088687451      8.12E-09 Convergence criterion met
 Total energy in the final basis set = -1656.4088687451

             Standard Nuclear Orientation (Angstroms)
    I     Atom           X                Y                Z
 ----------------------------------------------------------------
    1      H      -0.0852206056    -0.3711304360    -0.2458436001
    2      H       0.9255627986    -2.7305681104    -0.8567436101
    3      C       0.9656923805    -0.6291402558    -0.2852280344
    4      C       1.5201516484    -1.8617128247    -0.6025897402
    5      S       2.1468066913     0.5647772068     0.0725320336
    6      C       2.9199341986    -1.8460319374    -0.5581617313
    7      H       3.5385624235    -2.7093152174    -0.7768653660
    8      C       3.4508560818    -0.5926219550    -0.2047654808
    9      H       4.7098090010     1.9276429805     0.3730169357
   10      C       4.8091938721    -0.2235568018    -0.0665826705
   11      C       5.3349564616     1.0509219489     0.2472513291
   12      S       6.1118243686    -1.3921139484    -0.2509683135
   13      C       6.7179084263     1.0766513957     0.3355439981
   14      H       7.2992551507     1.9701048955     0.5309840481
   15      C       7.3217898264    -0.1772939291     0.1020671329
   16      C       8.7105782826    -0.4639298959    -0.0919651293
   17      H       8.7432234589    -1.5004048064    -2.0134661545
   18      C       9.3136187445    -1.0478115117    -1.2102368913
   19      S       9.9273953647     0.2612850268     0.9524562681
   20      C      10.7181003226    -0.9471436954    -1.1975260923
   21      C      11.1912092664    -0.2777273071    -0.0847899622
   22      H      11.3625243967    -1.3380179168    -1.9755376397
   23      H      12.2231474396    -0.0973728849     0.1884490406
 ----------------------------------------------------------------

    9   -1656.4088694664      7.84E-09 Convergence criterion met
 Total energy in the final basis set = -1656.4088694664
 Final energy is   -1656.40886946642
 **  OPTIMIZATION CONVERGED  **

                    Orbital Energies (a.u.)
 --------------------------------------------------------------

 Alpha MOs
 -- Occupied --
-89.076 -89.069 -89.058 -10.411 -10.411 -10.396 -10.384 -10.384
-10.369 -10.368 -10.366 -10.362 -10.352 -10.350 -10.337  -8.135
 -8.129  -8.117  -6.099  -6.095  -6.093  -6.091  -6.089  -6.086
 -6.081  -6.078  -6.074  -1.064  -1.041  -1.024  -0.944  -0.915
 -0.896  -0.887  -0.882  -0.842  -0.771  -0.748  -0.712  -0.702
 -0.689  -0.681  -0.670  -0.645  -0.607  -0.573  -0.571  -0.570
 -0.559  -0.553  -0.547  -0.542  -0.534  -0.520  -0.519  -0.508
 -0.494  -0.488  -0.449  -0.422  -0.410  -0.400  -0.392  -0.352

 Beta MOs
 -- Occupied --
-89.076 -89.069 -89.058 -10.408 -10.408 -10.396 -10.384 -10.381
-10.367 -10.367 -10.366 -10.360 -10.350 -10.350 -10.337  -8.135
 -8.129  -8.117  -6.099  -6.096  -6.093  -6.092  -6.089  -6.086
 -6.081  -6.078  -6.075  -1.060  -1.038  -1.021  -0.938  -0.912
 -0.894  -0.885  -0.879  -0.835  -0.767  -0.745  -0.710  -0.699
 -0.687  -0.679  -0.668  -0.643  -0.606  -0.570  -0.569  -0.563
 -0.556  -0.552  -0.542  -0.538  -0.533  -0.517  -0.509  -0.506
 -0.494  -0.487  -0.430  -0.419  -0.406  -0.396  -0.376

          Ground-State Mulliken Net Atomic Charges

     Atom                 Charge (a.u.)    Spin (a.u.)
  --------------------------------------------------------
      1 H                     0.244918      -0.012244
      2 H                     0.163759       0.001285
      3 C                     0.085944       0.240416
      4 C                    -0.339798      -0.036891
      5 S                    -0.067711      -0.026562
      6 C                     0.618054       0.139265
      7 H                     0.148690      -0.009227
      8 C                    -0.304420       0.047554
      9 H                     0.146280      -0.005447
     10 C                    -0.089611       0.167452
     11 C                    -0.147218       0.084151
     12 S                    -0.101102      -0.056669
     13 C                     0.161030       0.045566
     14 H                     0.170745      -0.003633
     15 C                     0.003361       0.189128
     16 C                    -0.209304       0.035893
     17 H                     0.158577      -0.007161
     18 C                     0.203407       0.092468
     19 S                     0.146504      -0.020513
     20 C                    -0.420931      -0.023027
     21 C                     0.044555       0.164925
     22 H                     0.154082       0.001877
     23 H                     0.230191      -0.008606
  --------------------------------------------------------
  Sum of atomic charges =     1.000000

                    Cartesian Multipole Moments
 -----------------------------------------------------------------
    Charge (ESU x 10^10)
                 4.8032
    Dipole Moment (Debye)
         X      28.0153      Y      -2.0325      Z      -1.5994
       Tot      28.1344
    Quadrupole Moments (Debye-Ang)
        XX     145.1587     XY      -6.9239     YY     -92.5722
        XZ     -10.1105     YZ       7.9621     ZZ    -104.0934

 Total job time:  212.52s(wall), 224.66s(cpu)
        *  Thank you very much for using Q-Chem.  Have a nice day.  *
