 Q-Chem 4.4, Q-Chem, Inc., Pleasanton, CA (2016)
 Q-Chem 4.4.2 for Intel X86 EM64T Linux

User input:
--------------------------------------------------------------
$molecule
 1  2
 H           0.00000000        0.00000000        0.00000000
 H           0.66366000       -2.46828000       -0.59127000
 C           0.99103000       -0.39106000       -0.11652000
 C           1.36812000       -1.67442000       -0.42485000
 S           2.34669000        0.62586000        0.08638000
 C           2.76167000       -1.82175000       -0.50822000
 H           3.26291000       -2.73877000       -0.76199000
 C           3.44671000       -0.65043000       -0.26057000
 H           4.55645000        1.43902671        0.15704385
 C           4.88382000       -0.65043000       -0.26057000
 C           5.26091000        0.64090194        0.01245390
 S           6.23948000       -1.67253113       -0.43550939
 C           6.65446000        0.79046248        0.09175311
 H           7.15570000        1.71409653        0.32028213
 C           7.33950000       -0.38720773       -0.12368600
 C           8.77661000       -0.38720773       -0.12368600
 H           8.96041000       -1.07946354        1.90938220
 C           9.46165000       -0.80387423        0.99868246
 S           9.87663000        0.00162735       -1.38784468
 C          10.85520000       -0.79560244        0.82960176
 C          11.23229000       -0.37034729       -0.41989317
 H          11.55966000       -1.07920155        1.58952311
 H          12.22332000       -0.25983906       -0.81269506
$end

$rem
         jobtype = opt
        exchange = b3lyp
           basis = 6-31++g**
  max_scf_cycles = 150
      mem_static = 281
       mem_total = 2818
      sym_ignore = true
        symmetry = false
          thresh = 12
$end

$opt
CONSTRAINT
tors 13 15 16 18 100.0
ENDCONSTRAINT
$end

--------------------------------------------------------------

   21   -1656.3523845197      4.63E-09 Convergence criterion met
 Total energy in the final basis set = -1656.3523845197
   17   -1656.3835427238      4.49E-09 Convergence criterion met
 Total energy in the final basis set = -1656.3835427238
   21   -1656.3960238526      3.02E-09 Convergence criterion met
 Total energy in the final basis set = -1656.3960238526
   16   -1656.3985932948      7.91E-09 Convergence criterion met
 Total energy in the final basis set = -1656.3985932948
   16   -1656.3997002336      5.63E-09 Convergence criterion met
 Total energy in the final basis set = -1656.3997002336
   16   -1656.4008658916      7.41E-09 Convergence criterion met
 Total energy in the final basis set = -1656.4008658916
   16   -1656.4015566815      8.27E-09 Convergence criterion met
 Total energy in the final basis set = -1656.4015566815
   14   -1656.4017436554      7.31E-09 Convergence criterion met
 Total energy in the final basis set = -1656.4017436554
   14   -1656.4017989277      4.54E-09 Convergence criterion met
 Total energy in the final basis set = -1656.4017989277
   11   -1656.4018028024      8.44E-09 Convergence criterion met
 Total energy in the final basis set = -1656.4018028024
   10   -1656.4018039439      8.31E-09 Convergence criterion met
 Total energy in the final basis set = -1656.4018039439

             Standard Nuclear Orientation (Angstroms)
    I     Atom           X                Y                Z
 ----------------------------------------------------------------
    1      H      -0.0883039333    -0.3604542248    -0.0944359598
    2      H       0.8987379396    -2.7902722498    -0.3848160213
    3      C       0.9604702105    -0.6245212925    -0.1501444893
    4      C       1.5029079299    -1.8950819219    -0.3026969138
    5      S       2.1523364053     0.6063942003    -0.0456271050
    6      C       2.9012671635    -1.8786310965    -0.3340156615
    7      H       3.5120131433    -2.7679293377    -0.4428604876
    8      C       3.4457292723    -0.5861113769    -0.2047020815
    9      H       4.7350107467     1.9591765566     0.1751661205
   10      C       4.8071467763    -0.2077488748    -0.1944431264
   11      C       5.3484851951     1.0881167686    -0.0256745984
   12      S       6.0988448127    -1.3792756198    -0.4360940501
   13      C       6.7331182271     1.1251431647    -0.0988880532
   14      H       7.3297730181     2.0194435518     0.0378846576
   15      C       7.3200529692    -0.1331113590    -0.3401576719
   16      C       8.7114886201    -0.5012732035    -0.2243869180
   17      H       8.7483118085    -1.6823067858     1.6064158178
   18      C       9.3166980716    -1.1714341259     0.8373326606
   19      S       9.9225177682     0.3035860373    -1.2113739031
   20      C      10.7266085248    -1.0889886953     0.8150899306
   21      C      11.1956091925    -0.3391065980    -0.2420172204
   22      H      11.3721956326    -1.5559599324     1.5490013795
   23      H      12.2258605053    -0.1580932745    -0.5207580851
 ----------------------------------------------------------------

    9   -1656.4018042001      5.83E-09 Convergence criterion met
 Total energy in the final basis set = -1656.4018042001
 Final energy is   -1656.40180420009
 **  OPTIMIZATION CONVERGED  **

                    Orbital Energies (a.u.)
 --------------------------------------------------------------

 Alpha MOs
 -- Occupied --
-89.078 -89.074 -89.052 -10.413 -10.413 -10.402 -10.390 -10.378
-10.371 -10.367 -10.367 -10.360 -10.355 -10.346 -10.330  -8.137
 -8.133  -8.111  -6.101  -6.097  -6.097  -6.093  -6.093  -6.090
 -6.076  -6.072  -6.068  -1.066  -1.043  -1.021  -0.945  -0.916
 -0.900  -0.885  -0.877  -0.842  -0.771  -0.748  -0.714  -0.698
 -0.691  -0.683  -0.667  -0.644  -0.608  -0.575  -0.573  -0.572
 -0.559  -0.555  -0.547  -0.538  -0.534  -0.520  -0.518  -0.506
 -0.498  -0.482  -0.448  -0.423  -0.414  -0.394  -0.386  -0.358

 Beta MOs
 -- Occupied --
-89.078 -89.074 -89.052 -10.410 -10.410 -10.401 -10.386 -10.377
-10.369 -10.366 -10.365 -10.359 -10.355 -10.345 -10.331  -8.137
 -8.133  -8.111  -6.101  -6.097  -6.097  -6.094  -6.094  -6.090
 -6.075  -6.072  -6.069  -1.062  -1.039  -1.018  -0.939  -0.913
 -0.898  -0.882  -0.875  -0.835  -0.767  -0.745  -0.711  -0.696
 -0.688  -0.682  -0.665  -0.642  -0.607  -0.572  -0.570  -0.563
 -0.557  -0.553  -0.540  -0.536  -0.532  -0.517  -0.510  -0.503
 -0.497  -0.482  -0.428  -0.421  -0.410  -0.390  -0.372

          Ground-State Mulliken Net Atomic Charges

     Atom                 Charge (a.u.)    Spin (a.u.)
  --------------------------------------------------------
      1 H                     0.246178      -0.013148
      2 H                     0.166195       0.001174
      3 C                     0.085745       0.258185
      4 C                    -0.346257      -0.037101
      5 S                    -0.054938      -0.031117
      6 C                     0.628962       0.140726
      7 H                     0.150738      -0.009384
      8 C                    -0.336392       0.065723
      9 H                     0.149652      -0.005831
     10 C                    -0.114344       0.156196
     11 C                    -0.032574       0.102813
     12 S                    -0.032205      -0.053222
     13 C                     0.145624       0.014737
     14 H                     0.178727      -0.002587
     15 C                    -0.221010       0.233681
     16 C                    -0.144735       0.037796
     17 H                     0.160354      -0.005274
     18 C                     0.173464       0.062166
     19 S                     0.165985      -0.017612
     20 C                    -0.339540      -0.015995
     21 C                    -0.010658       0.121938
     22 H                     0.153392       0.002110
     23 H                     0.227636      -0.005973
  --------------------------------------------------------
  Sum of atomic charges =     1.000000

                    Cartesian Multipole Moments
 -----------------------------------------------------------------
    Charge (ESU x 10^10)
                 4.8032
    Dipole Moment (Debye)
         X      26.8834      Y      -2.1887      Z       0.0143
       Tot      26.9723
    Quadrupole Moments (Debye-Ang)
        XX     130.4432     XY      -7.6397     YY     -91.0450
        XZ       3.2039     YZ      -1.3602     ZZ    -106.0317

 Total job time:  288.41s(wall), 306.06s(cpu)
        *  Thank you very much for using Q-Chem.  Have a nice day.  *
