 Q-Chem 4.4, Q-Chem, Inc., Pleasanton, CA (2016)
 Q-Chem 4.4.2 for Intel X86 EM64T Linux

User input:
--------------------------------------------------------------
$molecule
 1  2
 H           0.00000000        0.00000000        0.00000000
 H           0.66366000       -2.46828000       -0.59127000
 C           0.99103000       -0.39106000       -0.11652000
 C           1.36812000       -1.67442000       -0.42485000
 S           2.34669000        0.62586000        0.08638000
 C           2.76167000       -1.82175000       -0.50822000
 H           3.26291000       -2.73877000       -0.76199000
 C           3.44671000       -0.65043000       -0.26057000
 H           4.55645000        1.43902671        0.15704385
 C           4.88382000       -0.65043000       -0.26057000
 C           5.26091000        0.64090194        0.01245390
 S           6.23948000       -1.67253113       -0.43550939
 C           6.65446000        0.79046248        0.09175311
 H           7.15570000        1.71409653        0.32028213
 C           7.33950000       -0.38720773       -0.12368600
 C           8.77661000       -0.38720773       -0.12368600
 H           8.96041000       -0.43205032       -2.27091061
 C           9.46165000       -0.37954191       -1.32087569
 S           9.87663000       -0.32022544        1.19722402
 C          10.85520000       -0.32948584       -1.15916269
 C          11.23229000       -0.30174253        0.16042431
 H          11.55966000       -0.32289826       -1.97025178
 H          12.22332000       -0.27124015        0.56733338
$end

$rem
         jobtype = opt
        exchange = b3lyp
           basis = 6-31++g**
  max_scf_cycles = 150
      mem_static = 281
       mem_total = 2818
      sym_ignore = true
        symmetry = false
          thresh = 12
$end

$opt
CONSTRAINT
tors 13 15 16 18 -100.0
ENDCONSTRAINT
$end

--------------------------------------------------------------

   20   -1656.3545747141      8.05E-09 Convergence criterion met
 Total energy in the final basis set = -1656.3545747141
   20   -1656.3857213705      9.00E-09 Convergence criterion met
 Total energy in the final basis set = -1656.3857213705
   16   -1656.3981498062      8.68E-09 Convergence criterion met
 Total energy in the final basis set = -1656.3981498062
   16   -1656.4003575898      4.49E-09 Convergence criterion met
 Total energy in the final basis set = -1656.4003575898
   15   -1656.4009556413      7.90E-09 Convergence criterion met
 Total energy in the final basis set = -1656.4009556413
   16   -1656.4015200098      6.69E-09 Convergence criterion met
 Total energy in the final basis set = -1656.4015200098
   15   -1656.4016660000      5.53E-09 Convergence criterion met
 Total energy in the final basis set = -1656.4016660000
   13   -1656.4017153804      9.46E-09 Convergence criterion met
 Total energy in the final basis set = -1656.4017153804
   11   -1656.4017209954      9.78E-09 Convergence criterion met
 Total energy in the final basis set = -1656.4017209954

             Standard Nuclear Orientation (Angstroms)
    I     Atom           X                Y                Z
 ----------------------------------------------------------------
    1      H      -0.0913592349    -0.3677631520    -0.2297565707
    2      H       0.9193979392    -2.7175353380    -0.8779926825
    3      C       0.9599873949    -0.6234350076    -0.2757298534
    4      C       1.5147636171    -1.8524492035    -0.6129456797
    5      S       2.1400222360     0.5666197036     0.0961474750
    6      C       2.9129792709    -1.8363952360    -0.5727653560
    7      H       3.5324333149    -2.6955023492    -0.8049328834
    8      C       3.4446496351    -0.5857898137    -0.2023917652
    9      H       4.7081991054     1.9275650568     0.4030751919
   10      C       4.8024347562    -0.2192134758    -0.0641554382
   11      C       5.3304973789     1.0501071827     0.2678808950
   12      S       6.1054764946    -1.3851782979    -0.2691249093
   13      C       6.7144934871     1.0685544901     0.3606246795
   14      H       7.3021384604     1.9539223134     0.5735028289
   15      C       7.3135561988    -0.1836828552     0.1173482800
   16      C       8.7098763621    -0.4714131796    -0.1122418652
   17      H       8.7745322541    -0.8720071481    -2.2531547233
   18      C       9.3309549780    -0.6882638899    -1.3407872460
   19      S       9.9045440341    -0.0973407683     1.1212319951
   20      C      10.7399789112    -0.6153132501    -1.2716693836
   21      C      11.1923782422    -0.3204314252    -0.0035572441
   22      H      11.3966128768    -0.7674409502    -2.1196861196
   23      H      12.2183322871    -0.2565367865     0.3359029149
 ----------------------------------------------------------------

   10   -1656.4017217500      5.97E-09 Convergence criterion met
 Total energy in the final basis set = -1656.4017217500
 Final energy is   -1656.40172175003
 **  OPTIMIZATION CONVERGED  **

                    Orbital Energies (a.u.)
 --------------------------------------------------------------

 Alpha MOs
 -- Occupied --
-89.078 -89.074 -89.052 -10.413 -10.413 -10.402 -10.390 -10.378
-10.371 -10.367 -10.367 -10.360 -10.355 -10.346 -10.330  -8.137
 -8.133  -8.111  -6.101  -6.097  -6.097  -6.094  -6.093  -6.090
 -6.075  -6.072  -6.068  -1.066  -1.043  -1.021  -0.945  -0.916
 -0.900  -0.885  -0.877  -0.842  -0.771  -0.748  -0.714  -0.698
 -0.691  -0.684  -0.667  -0.644  -0.608  -0.575  -0.573  -0.572
 -0.559  -0.555  -0.547  -0.537  -0.534  -0.520  -0.518  -0.506
 -0.498  -0.482  -0.448  -0.423  -0.414  -0.394  -0.386  -0.358

 Beta MOs
 -- Occupied --
-89.078 -89.074 -89.052 -10.410 -10.410 -10.401 -10.386 -10.377
-10.369 -10.366 -10.365 -10.359 -10.355 -10.345 -10.330  -8.137
 -8.133  -8.111  -6.101  -6.097  -6.097  -6.094  -6.094  -6.090
 -6.075  -6.072  -6.069  -1.062  -1.039  -1.018  -0.939  -0.913
 -0.898  -0.881  -0.875  -0.835  -0.767  -0.745  -0.711  -0.696
 -0.688  -0.682  -0.665  -0.642  -0.607  -0.572  -0.570  -0.563
 -0.557  -0.553  -0.540  -0.536  -0.532  -0.517  -0.510  -0.503
 -0.497  -0.481  -0.428  -0.421  -0.410  -0.390  -0.372

          Ground-State Mulliken Net Atomic Charges

     Atom                 Charge (a.u.)    Spin (a.u.)
  --------------------------------------------------------
      1 H                     0.246201      -0.013169
      2 H                     0.166213       0.001174
      3 C                     0.085944       0.258694
      4 C                    -0.346344      -0.037186
      5 S                    -0.055272      -0.031290
      6 C                     0.626744       0.140925
      7 H                     0.150826      -0.009393
      8 C                    -0.333556       0.066048
      9 H                     0.149607      -0.005849
     10 C                    -0.111480       0.156021
     11 C                    -0.040774       0.103251
     12 S                    -0.029919      -0.053027
     13 C                     0.152491       0.014391
     14 H                     0.178789      -0.002556
     15 C                    -0.222509       0.233997
     16 C                    -0.151332       0.037816
     17 H                     0.160411      -0.005226
     18 C                     0.177067       0.061429
     19 S                     0.165451      -0.017400
     20 C                    -0.340301      -0.015867
     21 C                    -0.009077       0.121039
     22 H                     0.153241       0.002095
     23 H                     0.227579      -0.005918
  --------------------------------------------------------
  Sum of atomic charges =     1.000000

                    Cartesian Multipole Moments
 -----------------------------------------------------------------
    Charge (ESU x 10^10)
                 4.8032
    Dipole Moment (Debye)
         X      26.8555      Y      -1.7893      Z      -1.5630
       Tot      26.9604
    Quadrupole Moments (Debye-Ang)
        XX     130.0498     XY      -4.0780     YY     -94.2001
        XZ      -9.3295     YZ       6.4260     ZZ    -102.6189

 Total job time:  241.36s(wall), 255.69s(cpu)
        *  Thank you very much for using Q-Chem.  Have a nice day.  *
