 Q-Chem 4.4, Q-Chem, Inc., Pleasanton, CA (2016)
 Q-Chem 4.4.2 for Intel X86 EM64T Linux

User input:
--------------------------------------------------------------
$molecule
 1  2
 H           0.00000000        0.00000000        0.00000000
 H           0.66366000       -2.46828000       -0.59127000
 C           0.99103000       -0.39106000       -0.11652000
 C           1.36812000       -1.67442000       -0.42485000
 S           2.34669000        0.62586000        0.08638000
 C           2.76167000       -1.82175000       -0.50822000
 H           3.26291000       -2.73877000       -0.76199000
 C           3.44671000       -0.65043000       -0.26057000
 H           4.55645000        1.43902671        0.15704385
 C           4.88382000       -0.65043000       -0.26057000
 C           5.26091000        0.64090194        0.01245390
 S           6.23948000       -1.67253113       -0.43550939
 C           6.65446000        0.79046248        0.09175311
 H           7.15570000        1.71409653        0.32028213
 C           7.33950000       -0.38720773       -0.12368600
 C           8.77661000       -0.38720773       -0.12368600
 H           8.96041000       -1.49965486       -1.96081576
 C           9.46165000       -0.97916378       -1.16431559
 S           9.87663000        0.33125564        0.98676449
 C          10.85520000       -0.85495745       -1.04929606
 C          11.23229000       -0.17113755        0.07962815
 H          11.55966000       -1.25479699       -1.75501360
 H          12.22332000        0.05873283        0.41677055
$end

$rem
         jobtype = opt
        exchange = b3lyp
           basis = 6-31++g**
  max_scf_cycles = 150
      mem_static = 281
       mem_total = 2818
      sym_ignore = true
        symmetry = false
          thresh = 12
$end

$opt
CONSTRAINT
tors 13 15 16 18 -130.0
ENDCONSTRAINT
$end

--------------------------------------------------------------

   19   -1656.3648517010      9.51E-09 Convergence criterion met
 Total energy in the final basis set = -1656.3648517010
   16   -1656.3964325486      9.47E-09 Convergence criterion met
 Total energy in the final basis set = -1656.3964325486
   19   -1656.4092890231      9.01E-09 Convergence criterion met
 Total energy in the final basis set = -1656.4092890231
   15   -1656.4114174853      7.63E-09 Convergence criterion met
 Total energy in the final basis set = -1656.4114174853
   14   -1656.4117023884      6.92E-09 Convergence criterion met
 Total energy in the final basis set = -1656.4117023884
   14   -1656.4118155530      6.24E-09 Convergence criterion met
 Total energy in the final basis set = -1656.4118155530
   13   -1656.4118316543      5.66E-09 Convergence criterion met
 Total energy in the final basis set = -1656.4118316543
   11   -1656.4118357735      9.88E-09 Convergence criterion met
 Total energy in the final basis set = -1656.4118357735

             Standard Nuclear Orientation (Angstroms)
    I     Atom           X                Y                Z
 ----------------------------------------------------------------
    1      H      -0.0859777876    -0.3796283879    -0.2371137587
    2      H       0.9264317187    -2.7439624498    -0.8257685678
    3      C       0.9650661258    -0.6367861961    -0.2773357671
    4      C       1.5202964756    -1.8712963843    -0.5832179430
    5      S       2.1459368171     0.5625314398     0.0635097913
    6      C       2.9207238177    -1.8529656307    -0.5437099805
    7      H       3.5396434467    -2.7178756267    -0.7550979987
    8      C       3.4506924909    -0.5957022259    -0.2055545984
    9      H       4.7058443348     1.9296534598     0.3564977226
   10      C       4.8090957900    -0.2226847045    -0.0753531638
   11      C       5.3333452372     1.0550391651     0.2282164564
   12      S       6.1125258468    -1.3895150446    -0.2601421361
   13      C       6.7161612939     1.0858548373     0.3063642474
   14      H       7.2943005331     1.9830261524     0.4941390666
   15      C       7.3230497563    -0.1672082514     0.0710715077
   16      C       8.7101909671    -0.4523811581    -0.0991481437
   17      H       8.7472079689    -1.7536163381    -1.8549947092
   18      C       9.3154797474    -1.1941943278    -1.1205404301
   19      S       9.9285195320     0.4002660761     0.8440111736
   20      C      10.7187440229    -1.0988418061    -1.1162374922
   21      C      11.1913474670    -0.2809391000    -0.1056105879
   22      H      11.3650070380    -1.5966263774    -1.8288334316
   23      H      12.2232473597    -0.0636082111     0.1396125232
 ----------------------------------------------------------------

    9   -1656.4118363214      7.72E-09 Convergence criterion met
 Total energy in the final basis set = -1656.4118363214
 Final energy is   -1656.41183632145
 **  OPTIMIZATION CONVERGED  **

                    Orbital Energies (a.u.)
 --------------------------------------------------------------

 Alpha MOs
 -- Occupied --
-89.075 -89.068 -89.060 -10.411 -10.410 -10.395 -10.386 -10.382
-10.372 -10.367 -10.366 -10.361 -10.354 -10.348 -10.339  -8.134
 -8.127  -8.119  -6.098  -6.095  -6.091  -6.091  -6.087  -6.084
 -6.083  -6.080  -6.076  -1.064  -1.041  -1.025  -0.944  -0.914
 -0.895  -0.888  -0.883  -0.842  -0.771  -0.748  -0.712  -0.702
 -0.688  -0.680  -0.671  -0.646  -0.607  -0.573  -0.571  -0.570
 -0.559  -0.552  -0.547  -0.543  -0.535  -0.521  -0.519  -0.508
 -0.493  -0.489  -0.451  -0.422  -0.408  -0.402  -0.394  -0.350

 Beta MOs
 -- Occupied --
-89.075 -89.068 -89.060 -10.408 -10.408 -10.394 -10.386 -10.379
-10.369 -10.366 -10.365 -10.359 -10.352 -10.349 -10.340  -8.134
 -8.127  -8.119  -6.099  -6.095  -6.091  -6.091  -6.088  -6.084
 -6.084  -6.080  -6.077  -1.060  -1.037  -1.022  -0.939  -0.912
 -0.893  -0.886  -0.879  -0.835  -0.768  -0.745  -0.710  -0.700
 -0.686  -0.678  -0.670  -0.643  -0.605  -0.569  -0.568  -0.563
 -0.556  -0.551  -0.543  -0.538  -0.533  -0.518  -0.509  -0.507
 -0.493  -0.488  -0.432  -0.419  -0.404  -0.398  -0.377

          Ground-State Mulliken Net Atomic Charges

     Atom                 Charge (a.u.)    Spin (a.u.)
  --------------------------------------------------------
      1 H                     0.244729      -0.011899
      2 H                     0.163049       0.001323
      3 C                     0.087588       0.234298
      4 C                    -0.339568      -0.037059
      5 S                    -0.071326      -0.024942
      6 C                     0.621750       0.139098
      7 H                     0.148243      -0.009150
      8 C                    -0.289677       0.040619
      9 H                     0.143545      -0.005430
     10 C                    -0.048780       0.173486
     11 C                    -0.230978       0.070919
     12 S                    -0.141602      -0.057486
     13 C                     0.221501       0.058621
     14 H                     0.166469      -0.003807
     15 C                    -0.007262       0.176281
     16 C                    -0.237567       0.033055
     17 H                     0.156779      -0.007735
     18 C                     0.281921       0.104677
     19 S                     0.117303      -0.019908
     20 C                    -0.434618      -0.026501
     21 C                     0.062418       0.179333
     22 H                     0.154996       0.001733
     23 H                     0.231089      -0.009526
  --------------------------------------------------------
  Sum of atomic charges =     1.000000

                    Cartesian Multipole Moments
 -----------------------------------------------------------------
    Charge (ESU x 10^10)
                 4.8032
    Dipole Moment (Debye)
         X      28.3873      Y      -2.1667      Z      -1.5579
       Tot      28.5124
    Quadrupole Moments (Debye-Ang)
        XX     150.1161     XY      -8.4339     YY     -91.4448
        XZ     -10.0092     YZ       8.2639     ZZ    -105.1366

 Total job time:  207.73s(wall), 220.15s(cpu)
        *  Thank you very much for using Q-Chem.  Have a nice day.  *
