 Q-Chem 4.4, Q-Chem, Inc., Pleasanton, CA (2016)
 Q-Chem 4.4.2 for Intel X86 EM64T Linux

User input:
--------------------------------------------------------------
$molecule
 1  2
 H           0.00000000        0.00000000        0.00000000
 H           0.66366000       -2.46828000       -0.59127000
 C           0.99103000       -0.39106000       -0.11652000
 C           1.36812000       -1.67442000       -0.42485000
 S           2.34669000        0.62586000        0.08638000
 C           2.76167000       -1.82175000       -0.50822000
 H           3.26291000       -2.73877000       -0.76199000
 C           3.44671000       -0.65043000       -0.26057000
 H           4.55645000        1.43902671        0.15704385
 C           4.88382000       -0.65043000       -0.26057000
 C           5.26091000        0.64090194        0.01245390
 S           6.23948000       -1.67253113       -0.43550939
 C           6.65446000        0.79046248        0.09175311
 H           7.15570000        1.71409653        0.32028213
 C           7.33950000       -0.38720773       -0.12368600
 C           8.77661000       -0.38720773       -0.12368600
 H           8.96041000        0.38932460        1.87870806
 C           9.46165000        0.01505175        1.00392618
 S           9.87663000       -0.90192832       -1.34202610
 C          10.85520000       -0.08729467        0.86908585
 C          11.23229000       -0.56469018       -0.36143154
 H          11.55966000        0.18392384        1.63351337
 H          12.22332000       -0.73252415       -0.73336856
$end

$rem
         jobtype = opt
        exchange = b3lyp
           basis = 6-31++g**
  max_scf_cycles = 150
      mem_static = 281
       mem_total = 2818
      sym_ignore = true
        symmetry = false
          thresh = 12
$end

$opt
CONSTRAINT
tors 13 15 16 18 60.0
ENDCONSTRAINT
$end

--------------------------------------------------------------

   20   -1656.3632421249      6.78E-09 Convergence criterion met
 Total energy in the final basis set = -1656.3632421249
   17   -1656.3935198352      7.39E-09 Convergence criterion met
 Total energy in the final basis set = -1656.3935198352
   17   -1656.4054209974      6.27E-09 Convergence criterion met
 Total energy in the final basis set = -1656.4054209974
   16   -1656.4075606883      5.23E-09 Convergence criterion met
 Total energy in the final basis set = -1656.4075606883
   15   -1656.4079695855      5.79E-09 Convergence criterion met
 Total energy in the final basis set = -1656.4079695855
   15   -1656.4081741418      5.22E-09 Convergence criterion met
 Total energy in the final basis set = -1656.4081741418
   13   -1656.4082140244      8.42E-09 Convergence criterion met
 Total energy in the final basis set = -1656.4082140244
   12   -1656.4082234798      8.76E-09 Convergence criterion met
 Total energy in the final basis set = -1656.4082234798

             Standard Nuclear Orientation (Angstroms)
    I     Atom           X                Y                Z
 ----------------------------------------------------------------
    1      H      -0.1065359853    -0.5557724092    -0.3287137145
    2      H       1.0374206843    -2.8730196430    -0.8608476983
    3      C       0.9568927235    -0.7594865924    -0.3410685642
    4      C       1.5809189463    -1.9685488303    -0.6166677437
    5      S       2.0668613253     0.5029338041     0.0099950039
    6      C       2.9767216034    -1.8786865674    -0.5453351417
    7      H       3.6439214636    -2.7129824838    -0.7310572144
    8      C       3.4345705905    -0.5912012847    -0.2129117027
    9      H       4.5523256610     2.0038192556     0.3275386846
   10      C       4.7689485215    -0.1485869285    -0.0590202852
   11      C       5.2235378383     1.1577196624     0.2341181796
   12      S       6.1317207632    -1.2545365658    -0.1940948067
   13      C       6.6014185603     1.2531700437     0.3467879175
   14      H       7.1372831056     2.1780279483     0.5251723880
   15      C       7.2716797870     0.0234151741     0.1680505685
   16      C       8.6850542090    -0.1678247781     0.0384216315
   17      H       9.4346571577     0.7747529251     1.8591934278
   18      C       9.6580100100     0.1773886796     0.9824641684
   19      S       9.3725471825    -1.2309280353    -1.1854276059
   20      C      10.9297158360    -0.3515756816     0.6892577053
   21      C      10.9294823469    -1.1216596624    -0.4583513524
   22      H      11.8131860545    -0.1839129139     1.2932530520
   23      H      11.7765416149    -1.6023811767    -0.9313080371
 ----------------------------------------------------------------

   10   -1656.4082246605      6.98E-09 Convergence criterion met
 Total energy in the final basis set = -1656.4082246605
 Final energy is   -1656.40822466049
 **  OPTIMIZATION CONVERGED  **

                    Orbital Energies (a.u.)
 --------------------------------------------------------------

 Alpha MOs
 -- Occupied --
-89.076 -89.069 -89.059 -10.411 -10.410 -10.396 -10.384 -10.384
-10.369 -10.368 -10.366 -10.362 -10.351 -10.349 -10.337  -8.135
 -8.128  -8.118  -6.099  -6.096  -6.092  -6.091  -6.089  -6.085
 -6.082  -6.078  -6.075  -1.064  -1.041  -1.024  -0.944  -0.914
 -0.896  -0.889  -0.881  -0.841  -0.771  -0.747  -0.710  -0.705
 -0.689  -0.679  -0.669  -0.643  -0.608  -0.573  -0.570  -0.570
 -0.559  -0.553  -0.547  -0.541  -0.532  -0.519  -0.518  -0.510
 -0.495  -0.488  -0.449  -0.422  -0.409  -0.400  -0.392  -0.352

 Beta MOs
 -- Occupied --
-89.076 -89.069 -89.059 -10.408 -10.408 -10.396 -10.383 -10.381
-10.367 -10.367 -10.365 -10.360 -10.350 -10.350 -10.338  -8.135
 -8.128  -8.118  -6.100  -6.096  -6.092  -6.092  -6.089  -6.085
 -6.082  -6.078  -6.075  -1.060  -1.037  -1.021  -0.938  -0.912
 -0.894  -0.885  -0.879  -0.834  -0.767  -0.744  -0.707  -0.702
 -0.687  -0.678  -0.668  -0.641  -0.607  -0.569  -0.568  -0.561
 -0.557  -0.552  -0.543  -0.537  -0.531  -0.516  -0.508  -0.508
 -0.494  -0.487  -0.430  -0.419  -0.406  -0.396  -0.376

          Ground-State Mulliken Net Atomic Charges

     Atom                 Charge (a.u.)    Spin (a.u.)
  --------------------------------------------------------
      1 H                     0.242546      -0.012339
      2 H                     0.164618       0.001315
      3 C                     0.056497       0.240577
      4 C                    -0.250460      -0.037240
      5 S                    -0.045888      -0.025089
      6 C                     0.499284       0.139962
      7 H                     0.144757      -0.009073
      8 C                    -0.265206       0.044365
      9 H                     0.150352      -0.005049
     10 C                    -0.093620       0.170657
     11 C                    -0.069123       0.071890
     12 S                    -0.202253      -0.054710
     13 C                     0.146068       0.047385
     14 H                     0.183330      -0.003817
     15 C                    -0.044532       0.203258
     16 C                    -0.079610       0.021005
     17 H                     0.174984      -0.007834
     18 C                     0.076104       0.104431
     19 S                     0.082973      -0.020640
     20 C                    -0.274467      -0.030053
     21 C                     0.010707       0.167805
     22 H                     0.156239       0.001659
     23 H                     0.236701      -0.008465
  --------------------------------------------------------
  Sum of atomic charges =     1.000000

                    Cartesian Multipole Moments
 -----------------------------------------------------------------
    Charge (ESU x 10^10)
                 4.8032
    Dipole Moment (Debye)
         X      27.9784      Y      -2.0121      Z      -0.1380
       Tot      28.0510
    Quadrupole Moments (Debye-Ang)
        XX     143.6486     XY      -8.5951     YY     -90.7056
        XZ       4.7637     YZ       7.5443     ZZ    -104.6855

 Total job time:  214.08s(wall), 226.68s(cpu)
        *  Thank you very much for using Q-Chem.  Have a nice day.  *
