 Q-Chem 4.4, Q-Chem, Inc., Pleasanton, CA (2016)
 Q-Chem 4.4.2 for Intel X86 EM64T Linux

User input:
--------------------------------------------------------------
$molecule
 1  2
 H           0.00000000        0.00000000        0.00000000
 H           0.66366000       -2.46828000       -0.59127000
 C           0.99103000       -0.39106000       -0.11652000
 C           1.36812000       -1.67442000       -0.42485000
 S           2.34669000        0.62586000        0.08638000
 C           2.76167000       -1.82175000       -0.50822000
 H           3.26291000       -2.73877000       -0.76199000
 C           3.44671000       -0.65043000       -0.26057000
 H           4.55645000        1.43902671        0.15704385
 C           4.88382000       -0.65043000       -0.26057000
 C           5.26091000        0.64090194        0.01245390
 S           6.23948000       -1.67253113       -0.43550939
 C           6.65446000        0.79046248        0.09175311
 H           7.15570000        1.71409653        0.32028213
 C           7.33950000       -0.38720773       -0.12368600
 C           8.77661000       -0.38720773       -0.12368600
 H           8.96041000       -2.50959801       -0.45238630
 C           9.46165000       -1.56487826       -0.33912516
 S           9.87663000        0.92526605        0.03972295
 C          10.85520000       -1.39692990       -0.36033960
 C          11.23229000       -0.09257282       -0.15851754
 H          11.55966000       -2.19455280       -0.50767124
 H          12.22332000        0.31345108       -0.11789751
$end

$rem
         jobtype = opt
        exchange = b3lyp
           basis = 6-31++g**
  max_scf_cycles = 150
      mem_static = 281
       mem_total = 2818
      sym_ignore = true
        symmetry = false
          thresh = 12
$end

$opt
CONSTRAINT
tors 13 15 16 18 180.0
ENDCONSTRAINT
$end

--------------------------------------------------------------

   18   -1656.3716979693      9.62E-09 Convergence criterion met
 Total energy in the final basis set = -1656.3716979693
   17   -1656.4037475275      5.30E-09 Convergence criterion met
 Total energy in the final basis set = -1656.4037475275
   16   -1656.4164943584      8.17E-09 Convergence criterion met
 Total energy in the final basis set = -1656.4164943584
   15   -1656.4179982547      5.73E-09 Convergence criterion met
 Total energy in the final basis set = -1656.4179982547
   13   -1656.4181221104      7.60E-09 Convergence criterion met
 Total energy in the final basis set = -1656.4181221104
   12   -1656.4181637515      8.91E-09 Convergence criterion met
 Total energy in the final basis set = -1656.4181637515
   11   -1656.4181732011      5.13E-09 Convergence criterion met
 Total energy in the final basis set = -1656.4181732011
   10   -1656.4181767939      8.19E-09 Convergence criterion met
 Total energy in the final basis set = -1656.4181767939

             Standard Nuclear Orientation (Angstroms)
    I     Atom           X                Y                Z
 ----------------------------------------------------------------
    1      H      -0.0909318885    -0.4048933732    -0.1407763299
    2      H       0.9179628384    -2.7901448437    -0.6437970831
    3      C       0.9597424779    -0.6593099440    -0.2007296551
    4      C       1.5128986185    -1.9034719131    -0.4622578197
    5      S       2.1435943994     0.5602899429     0.0457439192
    6      C       2.9149453891    -1.8768693378    -0.4641139355
    7      H       3.5318486177    -2.7493295797    -0.6489488802
    8      C       3.4466806617    -0.6038622787    -0.2027977070
    9      H       4.6992596157     1.9367227864     0.2900930066
   10      C       4.8062775728    -0.2173772493    -0.1317379813
   11      C       5.3304113657     1.0721570510     0.1197555757
   12      S       6.1084820426    -1.3740775740    -0.3616494289
   13      C       6.7127170824     1.1197139199     0.1255401077
   14      H       7.2816064419     2.0255716446     0.3008752689
   15      C       7.3261052844    -0.1308288067    -0.1211758162
   16      C       8.7096517899    -0.4241456502    -0.1780899647
   17      H       8.7745973106    -2.5740200626    -0.6050340637
   18      C       9.3291544563    -1.6602901349    -0.4219551590
   19      S       9.9279802814     0.8276670190     0.0738767449
   20      C      10.7296037306    -1.5917815188    -0.4051600960
   21      C      11.1944540962    -0.3107991039    -0.1490590252
   22      H      11.3850874047    -2.4376558388    -0.5719524166
   23      H      12.2247504106     0.0151812557    -0.0818220610
 ----------------------------------------------------------------

    9   -1656.4181777430      7.67E-09 Convergence criterion met
 Total energy in the final basis set = -1656.4181777430
 Final energy is   -1656.41817774302
 **  OPTIMIZATION CONVERGED  **

                    Orbital Energies (a.u.)
 --------------------------------------------------------------

 Alpha MOs
 -- Occupied --
-89.074 -89.065 -89.065 -10.410 -10.410 -10.390 -10.390 -10.378
-10.378 -10.366 -10.366 -10.357 -10.357 -10.345 -10.345  -8.133
 -8.124  -8.124  -6.097  -6.094  -6.089  -6.088  -6.088  -6.084
 -6.084  -6.081  -6.081  -1.064  -1.041  -1.026  -0.944  -0.915
 -0.893  -0.892  -0.883  -0.842  -0.772  -0.749  -0.713  -0.703
 -0.687  -0.678  -0.674  -0.646  -0.606  -0.572  -0.571  -0.571
 -0.560  -0.551  -0.548  -0.545  -0.536  -0.523  -0.519  -0.509
 -0.492  -0.490  -0.457  -0.422  -0.406  -0.404  -0.395  -0.345

 Beta MOs
 -- Occupied --
-89.074 -89.065 -89.065 -10.407 -10.407 -10.390 -10.390 -10.375
-10.375 -10.366 -10.365 -10.356 -10.356 -10.345 -10.345  -8.133
 -8.124  -8.124  -6.098  -6.094  -6.090  -6.088  -6.088  -6.084
 -6.084  -6.081  -6.081  -1.059  -1.038  -1.023  -0.939  -0.913
 -0.891  -0.890  -0.880  -0.835  -0.769  -0.746  -0.710  -0.700
 -0.685  -0.676  -0.672  -0.644  -0.604  -0.570  -0.570  -0.561
 -0.558  -0.550  -0.546  -0.535  -0.535  -0.522  -0.508  -0.508
 -0.491  -0.489  -0.438  -0.419  -0.402  -0.400  -0.379

          Ground-State Mulliken Net Atomic Charges

     Atom                 Charge (a.u.)    Spin (a.u.)
  --------------------------------------------------------
      1 H                     0.241866      -0.011183
      2 H                     0.161983       0.001430
      3 C                     0.058670       0.216917
      4 C                    -0.225176      -0.035346
      5 S                    -0.019944      -0.018096
      6 C                     0.652539       0.136578
      7 H                     0.156784      -0.008708
      8 C                    -0.242586       0.023644
      9 H                     0.147748      -0.005182
     10 C                    -0.154585       0.182687
     11 C                    -0.032422       0.049440
     12 S                    -0.489507      -0.064316
     13 C                    -0.032494       0.049479
     14 H                     0.147868      -0.005185
     15 C                    -0.154224       0.182725
     16 C                    -0.243044       0.023680
     17 H                     0.156673      -0.008701
     18 C                     0.652408       0.136389
     19 S                    -0.019564      -0.018073
     20 C                    -0.225287      -0.035282
     21 C                     0.058465       0.216853
     22 H                     0.161926       0.001428
     23 H                     0.241904      -0.011179
  --------------------------------------------------------
  Sum of atomic charges =     1.000000

                    Cartesian Multipole Moments
 -----------------------------------------------------------------
    Charge (ESU x 10^10)
                 4.8032
    Dipole Moment (Debye)
         X      29.1995      Y      -2.6443      Z      -0.9425
       Tot      29.3342
    Quadrupole Moments (Debye-Ang)
        XX     161.0089     XY     -13.6730     YY     -86.2707
        XZ      -5.3876     YZ       5.2341     ZZ    -110.2039

 Total job time:  194.77s(wall), 205.41s(cpu)
        *  Thank you very much for using Q-Chem.  Have a nice day.  *
