 Q-Chem 4.4, Q-Chem, Inc., Pleasanton, CA (2016)
 Q-Chem 4.4.2 for Intel X86 EM64T Linux

User input:
--------------------------------------------------------------
$molecule
 1  2
 H           0.00000000        0.00000000        0.00000000
 H           0.66366000       -2.46828000       -0.59127000
 C           0.99103000       -0.39106000       -0.11652000
 C           1.36812000       -1.67442000       -0.42485000
 S           2.34669000        0.62586000        0.08638000
 C           2.76167000       -1.82175000       -0.50822000
 H           3.26291000       -2.73877000       -0.76199000
 C           3.44671000       -0.65043000       -0.26057000
 H           4.55645000        1.43902671        0.15704385
 C           4.88382000       -0.65043000       -0.26057000
 C           5.26091000        0.64090194        0.01245390
 S           6.23948000       -1.67253113       -0.43550939
 C           6.65446000        0.79046248        0.09175311
 H           7.15570000        1.71409653        0.32028213
 C           7.33950000       -0.38720773       -0.12368600
 C           8.77661000       -0.38720773       -0.12368600
 H           8.96041000        0.72523941        1.71344377
 C           9.46165000        0.20474833        0.91694360
 S           9.87663000       -1.10567109       -1.23413648
 C          10.85520000        0.08054200        0.80192406
 C          11.23229000       -0.60327791       -0.32700014
 H          11.55966000        0.48038154        1.50764161
 H          12.22332000       -0.83314828       -0.66414255
$end

$rem
         jobtype = opt
        exchange = b3lyp
           basis = 6-31++g**
  max_scf_cycles = 150
      mem_static = 281
       mem_total = 2818
      sym_ignore = true
        symmetry = false
          thresh = 12
$end

$opt
CONSTRAINT
tors 13 15 16 18 50.0
ENDCONSTRAINT
$end

--------------------------------------------------------------

   19   -1656.3667308562      9.08E-09 Convergence criterion met
 Total energy in the final basis set = -1656.3667308562
   17   -1656.3971770827      7.09E-09 Convergence criterion met
 Total energy in the final basis set = -1656.3971770827
   17   -1656.4089943388      5.76E-09 Convergence criterion met
 Total energy in the final basis set = -1656.4089943388
   16   -1656.4108011994      4.12E-09 Convergence criterion met
 Total energy in the final basis set = -1656.4108011994
   14   -1656.4110577199      7.44E-09 Convergence criterion met
 Total energy in the final basis set = -1656.4110577199
   14   -1656.4111783470      6.32E-09 Convergence criterion met
 Total energy in the final basis set = -1656.4111783470
   13   -1656.4112010680      6.05E-09 Convergence criterion met
 Total energy in the final basis set = -1656.4112010680
   12   -1656.4112077448      5.75E-09 Convergence criterion met
 Total energy in the final basis set = -1656.4112077448

             Standard Nuclear Orientation (Angstroms)
    I     Atom           X                Y                Z
 ----------------------------------------------------------------
    1      H      -0.1124377220    -0.5530809705    -0.3047014935
    2      H       1.0231994443    -2.8759704090    -0.8297833604
    3      C       0.9503473720    -0.7594283808    -0.3231537537
    4      C       1.5699234872    -1.9709049655    -0.5951812131
    5      S       2.0657200430     0.5027262989     0.0123690511
    6      C       2.9669319368    -1.8834719628    -0.5337432833
    7      H       3.6308028173    -2.7206784683    -0.7183972933
    8      C       3.4294815739    -0.5955834254    -0.2124198607
    9      H       4.5539971976     1.9978713317     0.3197825653
   10      C       4.7657957568    -0.1541489156    -0.0697004120
   11      C       5.2243868807     1.1521982820     0.2174229248
   12      S       6.1256815108    -1.2620963987    -0.2141169820
   13      C       6.6025701768     1.2480288337     0.3155396671
   14      H       7.1386049034     2.1737955997     0.4882743000
   15      C       7.2709091045     0.0174831093     0.1265108280
   16      C       8.6805500243    -0.1719138082     0.0109426167
   17      H       9.4274177378     1.0352526490     1.6728828552
   18      C       9.6569945694     0.3326711783     0.8797579381
   19      S       9.3871545342    -1.3590800436    -1.0796871714
   20      C      10.9398902929    -0.1897209897     0.6353753935
   21      C      10.9486945548    -1.1068021293    -0.3999920987
   22      H      11.8265207560     0.0841513996     1.1941186901
   23      H      11.8037430475    -1.6242227449    -0.8163844377
 ----------------------------------------------------------------

    9   -1656.4112086346      9.85E-09 Convergence criterion met
 Total energy in the final basis set = -1656.4112086346
 Final energy is   -1656.41120863458
 **  OPTIMIZATION CONVERGED  **

                    Orbital Energies (a.u.)
 --------------------------------------------------------------

 Alpha MOs
 -- Occupied --
-89.075 -89.068 -89.061 -10.410 -10.410 -10.394 -10.386 -10.382
-10.372 -10.367 -10.366 -10.360 -10.354 -10.348 -10.339  -8.134
 -8.127  -8.120  -6.099  -6.095  -6.091  -6.091  -6.087  -6.084
 -6.084  -6.080  -6.077  -1.064  -1.041  -1.025  -0.944  -0.914
 -0.894  -0.890  -0.882  -0.841  -0.771  -0.747  -0.709  -0.707
 -0.689  -0.678  -0.671  -0.643  -0.608  -0.572  -0.570  -0.569
 -0.560  -0.552  -0.548  -0.542  -0.533  -0.520  -0.518  -0.510
 -0.495  -0.489  -0.451  -0.421  -0.408  -0.402  -0.394  -0.350

 Beta MOs
 -- Occupied --
-89.076 -89.068 -89.061 -10.407 -10.407 -10.394 -10.386 -10.379
-10.370 -10.366 -10.365 -10.359 -10.352 -10.348 -10.340  -8.135
 -8.127  -8.120  -6.099  -6.095  -6.092  -6.091  -6.087  -6.084
 -6.084  -6.080  -6.077  -1.059  -1.037  -1.022  -0.938  -0.912
 -0.893  -0.887  -0.880  -0.834  -0.767  -0.744  -0.707  -0.704
 -0.687  -0.676  -0.669  -0.641  -0.607  -0.569  -0.568  -0.562
 -0.558  -0.550  -0.544  -0.537  -0.531  -0.517  -0.509  -0.508
 -0.494  -0.488  -0.432  -0.419  -0.404  -0.398  -0.377

          Ground-State Mulliken Net Atomic Charges

     Atom                 Charge (a.u.)    Spin (a.u.)
  --------------------------------------------------------
      1 H                     0.241929      -0.012053
      2 H                     0.163938       0.001375
      3 C                     0.056496       0.234359
      4 C                    -0.240224      -0.037240
      5 S                    -0.045981      -0.023180
      6 C                     0.487266       0.139622
      7 H                     0.143884      -0.009067
      8 C                    -0.252541       0.037699
      9 H                     0.148947      -0.004811
     10 C                    -0.096825       0.174893
     11 C                    -0.076316       0.064186
     12 S                    -0.225865      -0.056386
     13 C                     0.145853       0.055262
     14 H                     0.177927      -0.004126
     15 C                    -0.008138       0.190517
     16 C                    -0.094800       0.017499
     17 H                     0.168915      -0.008190
     18 C                     0.090856       0.121461
     19 S                     0.075438      -0.023379
     20 C                    -0.278980      -0.036603
     21 C                     0.023126       0.185913
     22 H                     0.157413       0.001819
     23 H                     0.237681      -0.009572
  --------------------------------------------------------
  Sum of atomic charges =     1.000000

                    Cartesian Multipole Moments
 -----------------------------------------------------------------
    Charge (ESU x 10^10)
                 4.8032
    Dipole Moment (Debye)
         X      28.3684      Y      -1.8744      Z      -0.1534
       Tot      28.4306
    Quadrupole Moments (Debye-Ang)
        XX     149.1261     XY      -7.1864     YY     -90.0031
        XZ       4.3654     YZ       7.7219     ZZ    -105.7661

 Total job time:  208.89s(wall), 221.64s(cpu)
        *  Thank you very much for using Q-Chem.  Have a nice day.  *
