 Q-Chem 4.4, Q-Chem, Inc., Pleasanton, CA (2016)
 Q-Chem 4.4.2 for Intel X86 EM64T Linux

User input:
--------------------------------------------------------------
$molecule
 1  2
 H           0.00000000        0.00000000        0.00000000
 H           0.66366000       -2.46828000       -0.59127000
 C           0.99103000       -0.39106000       -0.11652000
 C           1.36812000       -1.67442000       -0.42485000
 S           2.34669000        0.62586000        0.08638000
 C           2.76167000       -1.82175000       -0.50822000
 H           3.26291000       -2.73877000       -0.76199000
 C           3.44671000       -0.65043000       -0.26057000
 H           4.55645000        1.43902671        0.15704385
 C           4.88382000       -0.65043000       -0.26057000
 C           5.26091000        0.64090194        0.01245390
 S           6.23948000       -1.67253113       -0.43550939
 C           6.65446000        0.79046248        0.09175311
 H           7.15570000        1.71409653        0.32028213
 C           7.33950000       -0.38720773       -0.12368600
 C           8.77661000       -0.38720773       -0.12368600
 H           8.96041000       -2.00325295        1.29087480
 C           9.46165000       -1.30923573        0.63998035
 S           9.87663000        0.58161267       -1.02406199
 C          10.85520000       -1.21753180        0.49768806
 C          11.23229000       -0.22450257       -0.37177871
 H          11.55966000       -1.84309651        1.01399970
 H          12.22332000        0.06760131       -0.65670101
$end

$rem
         jobtype = opt
        exchange = b3lyp
           basis = 6-31++g**
  max_scf_cycles = 150
      mem_static = 281
       mem_total = 2818
      sym_ignore = true
        symmetry = false
          thresh = 12
$end

$opt
CONSTRAINT
tors 13 15 16 18 130.0
ENDCONSTRAINT
$end

--------------------------------------------------------------

   20   -1656.3623377641      5.97E-09 Convergence criterion met
 Total energy in the final basis set = -1656.3623377641
   16   -1656.3938340478      9.90E-09 Convergence criterion met
 Total energy in the final basis set = -1656.3938340478
   16   -1656.4069904904      9.61E-09 Convergence criterion met
 Total energy in the final basis set = -1656.4069904904
   16   -1656.4104628123      4.96E-09 Convergence criterion met
 Total energy in the final basis set = -1656.4104628123
   19   -1656.4113789402      9.61E-09 Convergence criterion met
 Total energy in the final basis set = -1656.4113789402
   15   -1656.4118075931      6.80E-09 Convergence criterion met
 Total energy in the final basis set = -1656.4118075931
   13   -1656.4118652685      8.60E-09 Convergence criterion met
 Total energy in the final basis set = -1656.4118652685
   12   -1656.4118788792      8.91E-09 Convergence criterion met
 Total energy in the final basis set = -1656.4118788792
   10   -1656.4118814537      9.32E-09 Convergence criterion met
 Total energy in the final basis set = -1656.4118814537
   10   -1656.4118831255      9.83E-09 Convergence criterion met
 Total energy in the final basis set = -1656.4118831255
   10   -1656.4118841761      7.48E-09 Convergence criterion met
 Total energy in the final basis set = -1656.4118841761

             Standard Nuclear Orientation (Angstroms)
    I     Atom           X                Y                Z
 ----------------------------------------------------------------
    1      H      -0.0847184006    -0.3836282975    -0.0807077843
    2      H       0.9101038702    -2.7999108085    -0.4460103655
    3      C       0.9643470085    -0.6436572268    -0.1458344512
    4      C       1.5104522247    -1.9049673183    -0.3374008106
    5      S       2.1540028107     0.5868335205    -0.0059266861
    6      C       2.9108565257    -1.8825367473    -0.3707413354
    7      H       3.5231841467    -2.7668921106    -0.5078909052
    8      C       3.4503118292    -0.5951736352    -0.2037996914
    9      H       4.7255832756     1.9458683184     0.2346097698
   10      C       4.8114293689    -0.2102198691    -0.1843099020
   11      C       5.3461192814     1.0830038045     0.0212779892
   12      S       6.1056432604    -1.3697808260    -0.4564599510
   13      C       6.7293063938     1.1299580382    -0.0374016110
   14      H       7.3144638813     2.0266594608     0.1300255324
   15      C       7.3264790446    -0.1230592922    -0.2961574842
   16      C       8.7108915959    -0.4627687223    -0.2468768477
   17      H       8.7355606966    -2.3371454038     0.8773157899
   18      C       9.3089778304    -1.5415824718     0.4151073371
   19      S       9.9371816156     0.6783797084    -0.7914693963
   20      C      10.7127416002    -1.4598701977     0.4496922969
   21      C      11.1930921668    -0.3209959301    -0.1716003403
   22      H      11.3538980098    -2.1958333594     0.9193313153
   23      H      12.2269719635    -0.0328251440    -0.3137296684
 ----------------------------------------------------------------

   10   -1656.4118849843      8.31E-09 Convergence criterion met
 Total energy in the final basis set = -1656.4118849843
 Final energy is   -1656.41188498432
 **  OPTIMIZATION CONVERGED  **

                    Orbital Energies (a.u.)
 --------------------------------------------------------------

 Alpha MOs
 -- Occupied --
-89.075 -89.068 -89.060 -10.411 -10.410 -10.395 -10.386 -10.382
-10.372 -10.368 -10.366 -10.361 -10.354 -10.348 -10.339  -8.134
 -8.127  -8.119  -6.098  -6.095  -6.091  -6.091  -6.087  -6.084
 -6.083  -6.080  -6.076  -1.064  -1.041  -1.025  -0.944  -0.914
 -0.895  -0.888  -0.883  -0.842  -0.771  -0.748  -0.712  -0.702
 -0.688  -0.680  -0.671  -0.646  -0.607  -0.573  -0.571  -0.570
 -0.559  -0.552  -0.547  -0.544  -0.535  -0.521  -0.519  -0.508
 -0.493  -0.489  -0.451  -0.422  -0.408  -0.402  -0.394  -0.350

 Beta MOs
 -- Occupied --
-89.075 -89.068 -89.060 -10.408 -10.408 -10.394 -10.386 -10.379
-10.369 -10.366 -10.365 -10.359 -10.352 -10.349 -10.340  -8.134
 -8.127  -8.119  -6.099  -6.095  -6.091  -6.091  -6.088  -6.084
 -6.084  -6.080  -6.077  -1.060  -1.037  -1.022  -0.939  -0.912
 -0.893  -0.886  -0.879  -0.835  -0.768  -0.745  -0.710  -0.700
 -0.686  -0.678  -0.670  -0.643  -0.605  -0.569  -0.568  -0.563
 -0.557  -0.551  -0.543  -0.538  -0.533  -0.518  -0.509  -0.507
 -0.493  -0.488  -0.432  -0.419  -0.404  -0.398  -0.377

          Ground-State Mulliken Net Atomic Charges

     Atom                 Charge (a.u.)    Spin (a.u.)
  --------------------------------------------------------
      1 H                     0.244738      -0.011900
      2 H                     0.163079       0.001324
      3 C                     0.087760       0.234297
      4 C                    -0.339600      -0.037043
      5 S                    -0.071327      -0.024932
      6 C                     0.624657       0.139026
      7 H                     0.148354      -0.009150
      8 C                    -0.294436       0.040622
      9 H                     0.143554      -0.005458
     10 C                    -0.047770       0.173518
     11 C                    -0.225407       0.070899
     12 S                    -0.142779      -0.057642
     13 C                     0.216007       0.058127
     14 H                     0.166288      -0.003812
     15 C                    -0.004154       0.177129
     16 C                    -0.238921       0.032779
     17 H                     0.156634      -0.007729
     18 C                     0.280670       0.104765
     19 S                     0.117265      -0.019792
     20 C                    -0.433746      -0.026437
     21 C                     0.062970       0.179199
     22 H                     0.154978       0.001729
     23 H                     0.231184      -0.009519
  --------------------------------------------------------
  Sum of atomic charges =     1.000000

                    Cartesian Multipole Moments
 -----------------------------------------------------------------
    Charge (ESU x 10^10)
                 4.8032
    Dipole Moment (Debye)
         X      28.3894      Y      -2.5220      Z      -0.1769
       Tot      28.5017
    Quadrupole Moments (Debye-Ang)
        XX     150.1992     XY     -11.6741     YY     -87.7275
        XZ       1.3345     YZ      -0.6319     ZZ    -109.0556

 Total job time:  268.95s(wall), 283.88s(cpu)
        *  Thank you very much for using Q-Chem.  Have a nice day.  *
