 Q-Chem 4.4, Q-Chem, Inc., Pleasanton, CA (2016)
 Q-Chem 4.4.2 for Intel X86 EM64T Linux

User input:
--------------------------------------------------------------
$molecule
 1  2
 H           0.00000000        0.00000000        0.00000000
 H           0.66366000       -2.46828000       -0.59127000
 C           0.99103000       -0.39106000       -0.11652000
 C           1.36812000       -1.67442000       -0.42485000
 S           2.34669000        0.62586000        0.08638000
 C           2.76167000       -1.82175000       -0.50822000
 H           3.26291000       -2.73877000       -0.76199000
 C           3.44671000       -0.65043000       -0.26057000
 H           4.55645000        1.43902671        0.15704385
 C           4.88382000       -0.65043000       -0.26057000
 C           5.26091000        0.64090194        0.01245390
 S           6.23948000       -1.67253113       -0.43550939
 C           6.65446000        0.79046248        0.09175311
 H           7.15570000        1.71409653        0.32028213
 C           7.33950000       -0.38720773       -0.12368600
 C           8.77661000       -0.38720773       -0.12368600
 H           8.96041000       -2.38960178        0.65284633
 C           9.46165000       -1.51481991        0.27857348
 S           9.87663000        0.83113238       -0.63840659
 C          10.85520000       -1.37997958        0.17622706
 C          11.23229000       -0.14946219       -0.30116845
 H          11.55966000       -2.14440710        0.44744557
 H          12.22332000        0.22247484       -0.46900242
$end

$rem
         jobtype = opt
        exchange = b3lyp
           basis = 6-31++g**
  max_scf_cycles = 150
      mem_static = 281
       mem_total = 2818
      sym_ignore = true
        symmetry = false
          thresh = 12
$end

$opt
CONSTRAINT
tors 13 15 16 18 150.0
ENDCONSTRAINT
$end

--------------------------------------------------------------

   19   -1656.3683091184      6.13E-09 Convergence criterion met
 Total energy in the final basis set = -1656.3683091184
   17   -1656.4001023707      5.97E-09 Convergence criterion met
 Total energy in the final basis set = -1656.4001023707
   16   -1656.4130584523      7.23E-09 Convergence criterion met
 Total energy in the final basis set = -1656.4130584523
   15   -1656.4154414864      7.68E-09 Convergence criterion met
 Total energy in the final basis set = -1656.4154414864
   14   -1656.4158318628      7.79E-09 Convergence criterion met
 Total energy in the final basis set = -1656.4158318628
   14   -1656.4159944118      7.81E-09 Convergence criterion met
 Total energy in the final basis set = -1656.4159944118
   12   -1656.4160187534      9.32E-09 Convergence criterion met
 Total energy in the final basis set = -1656.4160187534
   12   -1656.4160259122      5.80E-09 Convergence criterion met
 Total energy in the final basis set = -1656.4160259122
   10   -1656.4160280860      7.71E-09 Convergence criterion met
 Total energy in the final basis set = -1656.4160280860
   10   -1656.4160294978      6.31E-09 Convergence criterion met
 Total energy in the final basis set = -1656.4160294978
   10   -1656.4160305673      5.72E-09 Convergence criterion met
 Total energy in the final basis set = -1656.4160305673

             Standard Nuclear Orientation (Angstroms)
    I     Atom           X                Y                Z
 ----------------------------------------------------------------
    1      H      -0.0887458110    -0.3942271531    -0.1227710345
    2      H       0.9139696766    -2.8016956790    -0.5226908494
    3      C       0.9612426585    -0.6523694883    -0.1788955327
    4      C       1.5113318863    -1.9082977316    -0.3879751161
    5      S       2.1479150854     0.5760364042     0.0013899678
    6      C       2.9128001155    -1.8836861127    -0.4022338330
    7      H       3.5276015337    -2.7647766804    -0.5491083820
    8      C       3.4480070572    -0.6001898815    -0.2032773322
    9      H       4.7113202378     1.9399581851     0.2699406862
   10      C       4.8084834313    -0.2131779004    -0.1601911073
   11      C       5.3377765837     1.0786076876     0.0685079979
   12      S       6.1067209820    -1.3688756572    -0.4220317394
   13      C       6.7205749160     1.1276847885     0.0372786723
   14      H       7.2971740147     2.0275563237     0.2175131497
   15      C       7.3261931072    -0.1236244859    -0.2184295194
   16      C       8.7098257910    -0.4398788394    -0.2179662394
   17      H       8.7584080937    -2.5595639670     0.3305252184
   18      C       9.3206977382    -1.6617872395     0.0993249661
   19      S       9.9308483680     0.8060266095    -0.4730880500
   20      C      10.7227374834    -1.5908535250     0.1185432115
   21      C      11.1936296811    -0.3218685588    -0.1771173743
   22      H      11.3730043102    -2.4260802964     0.3480307464
   23      H      12.2253630595    -0.0013190724    -0.2477219264
 ----------------------------------------------------------------

   10   -1656.4160311977      6.72E-09 Convergence criterion met
 Total energy in the final basis set = -1656.4160311977
 Final energy is   -1656.41603119766
 **  OPTIMIZATION CONVERGED  **

                    Orbital Energies (a.u.)
 --------------------------------------------------------------

 Alpha MOs
 -- Occupied --
-89.074 -89.066 -89.063 -10.410 -10.410 -10.392 -10.389 -10.380
-10.376 -10.367 -10.366 -10.359 -10.356 -10.346 -10.343  -8.133
 -8.125  -8.122  -6.098  -6.094  -6.090  -6.089  -6.086  -6.085
 -6.083  -6.082  -6.079  -1.064  -1.041  -1.026  -0.944  -0.915
 -0.893  -0.891  -0.883  -0.842  -0.772  -0.749  -0.713  -0.703
 -0.687  -0.678  -0.673  -0.646  -0.606  -0.572  -0.571  -0.570
 -0.560  -0.551  -0.547  -0.545  -0.535  -0.522  -0.519  -0.509
 -0.492  -0.490  -0.454  -0.422  -0.407  -0.404  -0.395  -0.347

 Beta MOs
 -- Occupied --
-89.075 -89.066 -89.063 -10.407 -10.407 -10.392 -10.388 -10.377
-10.373 -10.366 -10.365 -10.357 -10.354 -10.346 -10.343  -8.134
 -8.125  -8.122  -6.098  -6.094  -6.090  -6.089  -6.086  -6.086
 -6.083  -6.082  -6.079  -1.059  -1.037  -1.022  -0.939  -0.912
 -0.892  -0.889  -0.880  -0.835  -0.768  -0.746  -0.710  -0.700
 -0.685  -0.676  -0.671  -0.644  -0.605  -0.569  -0.569  -0.562
 -0.557  -0.549  -0.545  -0.538  -0.533  -0.520  -0.508  -0.507
 -0.491  -0.489  -0.435  -0.419  -0.403  -0.400  -0.379

          Ground-State Mulliken Net Atomic Charges

     Atom                 Charge (a.u.)    Spin (a.u.)
  --------------------------------------------------------
      1 H                     0.241529      -0.011584
      2 H                     0.163460       0.001419
      3 C                     0.065590       0.223463
      4 C                    -0.255693      -0.035473
      5 S                    -0.033458      -0.020453
      6 C                     0.483720       0.135629
      7 H                     0.143034      -0.008985
      8 C                    -0.192794       0.030071
      9 H                     0.143284      -0.005089
     10 C                    -0.099351       0.175117
     11 C                    -0.081384       0.065414
     12 S                    -0.258544      -0.059823
     13 C                     0.154430       0.058604
     14 H                     0.157877      -0.004152
     15 C                    -0.141776       0.172002
     16 C                    -0.250167       0.030657
     17 H                     0.156001      -0.008462
     18 C                     0.483385       0.120846
     19 S                     0.051989      -0.018168
     20 C                    -0.379654      -0.031673
     21 C                     0.056752       0.199946
     22 H                     0.157674       0.001503
     23 H                     0.234098      -0.010809
  --------------------------------------------------------
  Sum of atomic charges =     1.000000

                    Cartesian Multipole Moments
 -----------------------------------------------------------------
    Charge (ESU x 10^10)
                 4.8032
    Dipole Moment (Debye)
         X      28.9021      Y      -2.6549      Z      -0.4608
       Tot      29.0275
    Quadrupole Moments (Debye-Ang)
        XX     157.0829     XY     -13.4420     YY     -86.2342
        XZ      -1.1458     YZ       1.3313     ZZ    -110.3690

 Total job time:  257.31s(wall), 273.32s(cpu)
        *  Thank you very much for using Q-Chem.  Have a nice day.  *
