 Q-Chem 4.4, Q-Chem, Inc., Pleasanton, CA (2016)
 Q-Chem 4.4.2 for Intel X86 EM64T Linux

User input:
--------------------------------------------------------------
$molecule
 1  2
 H           0.00000000        0.00000000        0.00000000
 H           0.66366000       -2.46828000       -0.59127000
 C           0.99103000       -0.39106000       -0.11652000
 C           1.36812000       -1.67442000       -0.42485000
 S           2.34669000        0.62586000        0.08638000
 C           2.76167000       -1.82175000       -0.50822000
 H           3.26291000       -2.73877000       -0.76199000
 C           3.44671000       -0.65043000       -0.26057000
 H           4.55645000        1.43902671        0.15704385
 C           4.88382000       -0.65043000       -0.26057000
 C           5.26091000        0.64090194        0.01245390
 S           6.23948000       -1.67253113       -0.43550939
 C           6.65446000        0.79046248        0.09175311
 H           7.15570000        1.71409653        0.32028213
 C           7.33950000       -0.38720773       -0.12368600
 C           8.77661000       -0.38720773       -0.12368600
 H           8.96041000        1.02735307        1.49235922
 C           9.46165000        0.37645862        0.79834200
 S           9.87663000       -1.28758372       -1.09250639
 C          10.85520000        0.23416633        0.70663808
 C          11.23229000       -0.63530045       -0.28639115
 H          11.55966000        0.75047797        1.33220278
 H          12.22332000       -0.92022274       -0.57849503
$end

$rem
         jobtype = opt
        exchange = b3lyp
           basis = 6-31++g**
  max_scf_cycles = 150
      mem_static = 281
       mem_total = 2818
      sym_ignore = true
        symmetry = false
          thresh = 12
$end

$opt
CONSTRAINT
tors 13 15 16 18 40.0
ENDCONSTRAINT
$end

--------------------------------------------------------------

   19   -1656.3692404697      6.52E-09 Convergence criterion met
 Total energy in the final basis set = -1656.3692404697
   17   -1656.4001042303      6.65E-09 Convergence criterion met
 Total energy in the final basis set = -1656.4001042303
   17   -1656.4118533310      5.31E-09 Convergence criterion met
 Total energy in the final basis set = -1656.4118533310
   15   -1656.4133566035      8.79E-09 Convergence criterion met
 Total energy in the final basis set = -1656.4133566035
   14   -1656.4135295021      3.97E-09 Convergence criterion met
 Total energy in the final basis set = -1656.4135295021
   14   -1656.4135935924      3.00E-09 Convergence criterion met
 Total energy in the final basis set = -1656.4135935924
   12   -1656.4136062148      8.02E-09 Convergence criterion met
 Total energy in the final basis set = -1656.4136062148
   11   -1656.4136102680      8.56E-09 Convergence criterion met
 Total energy in the final basis set = -1656.4136102680

             Standard Nuclear Orientation (Angstroms)
    I     Atom           X                Y                Z
 ----------------------------------------------------------------
    1      H      -0.1171203528    -0.5524192644    -0.2892669147
    2      H       1.0133602902    -2.8808071813    -0.8007121204
    3      C       0.9452168274    -0.7606427854    -0.3102243137
    4      C       1.5620037890    -1.9746173640    -0.5750859567
    5      S       2.0639075376     0.5023289099     0.0115708903
    6      C       2.9597747067    -1.8887001402    -0.5192442600
    7      H       3.6215420656    -2.7284602889    -0.6998994421
    8      C       3.4251648166    -0.5995828034    -0.2094100895
    9      H       4.5538760288     1.9946152162     0.3091614803
   10      C       4.7626601304    -0.1582877212    -0.0757578514
   11      C       5.2239557191     1.1494657328     0.2009729573
   12      S       6.1205597382    -1.2674120038    -0.2240446220
   13      C       6.6022279781     1.2469490857     0.2852330992
   14      H       7.1364244633     2.1748891412     0.4511345547
   15      C       7.2700561180     0.0158131188     0.0907835442
   16      C       8.6767563527    -0.1753880771    -0.0078136324
   17      H       9.4272872923     1.2688816619     1.4549927166
   18      C       9.6578480022     0.4711373725     0.7583656913
   19      S       9.3971471351    -1.4699774525    -0.9575537832
   20      C      10.9488229825    -0.0446408787     0.5536650702
   21      C      10.9630839702    -1.0918097633    -0.3512206764
   22      H      11.8390272936     0.3245946478     1.0480572469
   23      H      11.8232971154    -1.6423190126    -0.7105124786
 ----------------------------------------------------------------

    9   -1656.4136109572      8.07E-09 Convergence criterion met
 Total energy in the final basis set = -1656.4136109572
 Final energy is   -1656.41361095720
 **  OPTIMIZATION CONVERGED  **

                    Orbital Energies (a.u.)
 --------------------------------------------------------------

 Alpha MOs
 -- Occupied --
-89.075 -89.066 -89.062 -10.410 -10.410 -10.393 -10.388 -10.380
-10.374 -10.366 -10.366 -10.359 -10.355 -10.346 -10.341  -8.134
 -8.126  -8.121  -6.098  -6.095  -6.091  -6.090  -6.086  -6.086
 -6.083  -6.082  -6.078  -1.064  -1.041  -1.026  -0.944  -0.914
 -0.893  -0.891  -0.882  -0.841  -0.771  -0.748  -0.709  -0.707
 -0.689  -0.677  -0.672  -0.643  -0.608  -0.572  -0.570  -0.569
 -0.560  -0.551  -0.548  -0.543  -0.533  -0.520  -0.519  -0.511
 -0.494  -0.489  -0.452  -0.421  -0.407  -0.403  -0.394  -0.348

 Beta MOs
 -- Occupied --
-89.075 -89.066 -89.062 -10.407 -10.407 -10.392 -10.387 -10.377
-10.371 -10.366 -10.365 -10.357 -10.354 -10.347 -10.342  -8.134
 -8.126  -8.121  -6.099  -6.095  -6.091  -6.090  -6.086  -6.086
 -6.083  -6.082  -6.079  -1.059  -1.037  -1.022  -0.939  -0.912
 -0.892  -0.888  -0.880  -0.834  -0.768  -0.744  -0.707  -0.705
 -0.687  -0.676  -0.670  -0.641  -0.606  -0.569  -0.568  -0.562
 -0.558  -0.549  -0.545  -0.537  -0.531  -0.518  -0.510  -0.508
 -0.494  -0.488  -0.434  -0.419  -0.403  -0.400  -0.378

          Ground-State Mulliken Net Atomic Charges

     Atom                 Charge (a.u.)    Spin (a.u.)
  --------------------------------------------------------
      1 H                     0.241422      -0.011819
      2 H                     0.163468       0.001420
      3 C                     0.055067       0.229219
      4 C                    -0.230982      -0.037100
      5 S                    -0.042247      -0.021659
      6 C                     0.470579       0.138884
      7 H                     0.143384      -0.009053
      8 C                    -0.232345       0.032807
      9 H                     0.147365      -0.004664
     10 C                    -0.090219       0.177652
     11 C                    -0.079365       0.058073
     12 S                    -0.260616      -0.057841
     13 C                     0.161617       0.058672
     14 H                     0.168975      -0.004232
     15 C                    -0.014369       0.183759
     16 C                    -0.120425       0.017344
     17 H                     0.160190      -0.008453
     18 C                     0.143397       0.132195
     19 S                     0.062425      -0.025018
     20 C                    -0.285001      -0.041879
     21 C                     0.040660       0.200220
     22 H                     0.158483       0.001940
     23 H                     0.238534      -0.010466
  --------------------------------------------------------
  Sum of atomic charges =     1.000000

                    Cartesian Multipole Moments
 -----------------------------------------------------------------
    Charge (ESU x 10^10)
                 4.8032
    Dipole Moment (Debye)
         X      28.6574      Y      -1.7425      Z      -0.2019
       Tot      28.7110
    Quadrupole Moments (Debye-Ang)
        XX     153.2174     XY      -5.7935     YY     -89.1699
        XZ       3.6597     YZ       7.6317     ZZ    -106.9055

 Total job time:  204.71s(wall), 216.52s(cpu)
        *  Thank you very much for using Q-Chem.  Have a nice day.  *
