 Q-Chem 4.4, Q-Chem, Inc., Pleasanton, CA (2016)
 Q-Chem 4.4.1 for Intel X86 EM64T Linux

User input:
--------------------------------------------------------------
$molecule
 0  1
 S           1.82267924       -1.19997629        0.28714109
 C           3.20006180       -0.17260711        0.06528466
 C           2.82980603        1.10216298       -0.25610036
 C           1.41909100        1.26345446       -0.34254814
 C           0.71738150        0.10901545       -0.08456145
 H           0.93627498        2.19419272       -0.61095402
 C          -0.71741859       -0.10899254       -0.08455524
 S          -1.37749492       -1.73017070        0.01232441
 C          -1.73472742        0.81364706       -0.15872793
 C          -3.00222863       -1.12962874       -0.02614873
 C          -3.03258060        0.23215198       -0.12639132
 H          -3.94960206        0.80508588       -0.16553498
 H           4.19429620       -0.57452886        0.18632814
 H           3.53860725        1.89960515       -0.43610218
 H          -3.83060461       -1.81928354        0.02736890
 H          -1.55532431        1.87978385       -0.20965551
$end

$rem
         jobtype = opt
        exchange = b3lyp
           basis = 6-31++g**
  max_scf_cycles = 75
      mem_static = 100
       mem_total = 1500
$end

$opt
CONSTRAINT
tors 4 5 7 9 -10.0
ENDCONSTRAINT
$end

--------------------------------------------------------------

   27   -1104.8387150843      8.52E-09 Convergence criterion met
 Total energy in the final basis set = -1104.8387150843
   12   -1104.8391317921      2.08E-09 Convergence criterion met
 Total energy in the final basis set = -1104.8391317921
   10   -1104.8391575895      7.16E-09 Convergence criterion met
 Total energy in the final basis set = -1104.8391575895
   10   -1104.8391636335      5.07E-09 Convergence criterion met
 Total energy in the final basis set = -1104.8391636335
    9   -1104.8391673448      8.74E-09 Convergence criterion met
 Total energy in the final basis set = -1104.8391673448
   10   -1104.8391698295      2.48E-09 Convergence criterion met
 Total energy in the final basis set = -1104.8391698295

             Standard Nuclear Orientation (Angstroms)
    I     Atom           X                Y                Z
 ----------------------------------------------------------------
    1      S       1.6670640443     0.1380160020     1.1637053812
    2      C       3.1627751375     0.0310579991     0.2929476086
    3      C       2.9510477540    -0.1047276867    -1.0541326385
    4      C       1.5694819809    -0.1326625483    -1.3979545655
    5      C       0.7270565105    -0.0173232739    -0.3093576039
    6      H       1.2074604193    -0.2493248049    -2.4127391566
    7      C      -0.7270565105     0.0173232739    -0.3093576039
    8      S      -1.6670640443    -0.1380160020     1.1637053812
    9      C      -1.5694819809     0.1326625483    -1.3979545655
   10      C      -3.1627751375    -0.0310579991     0.2929476086
   11      C      -2.9510477540     0.1047276867    -1.0541326385
   12      H      -3.7538742056     0.1894807922    -1.7776872381
   13      H       4.1015202049     0.0732539576     0.8276577022
   14      H       3.7538742056    -0.1894807922    -1.7776872381
   15      H      -4.1015202049    -0.0732539576     0.8276577022
   16      H      -1.2074604193     0.2493248049    -2.4127391566
 ----------------------------------------------------------------

    9   -1104.8391707330      7.95E-09 Convergence criterion met
 Total energy in the final basis set = -1104.8391707330
 Final energy is   -1104.83917073302
 **  OPTIMIZATION CONVERGED  **

             Orbital Energies (a.u.) and Symmetries
 --------------------------------------------------------------

 Alpha MOs, Restricted
 -- Occupied --
-88.920 -88.920 -10.240 -10.239 -10.225 -10.225 -10.205 -10.205
  1 B     1 A     2 A     2 B     3 B     3 A     4 B     4 A
-10.203 -10.203  -7.980  -7.980  -5.944  -5.944  -5.940  -5.940
  5 B     5 A     6 B     6 A     7 B     7 A     8 B     8 A
 -5.937  -5.937  -0.901  -0.878  -0.772  -0.750  -0.737  -0.705
  9 A     9 B    10 A    10 B    11 A    12 A    11 B    12 B
 -0.604  -0.580  -0.553  -0.533  -0.528  -0.477  -0.422  -0.419
 13 A    14 A    13 B    14 B    15 A    15 B    16 A    17 A
 -0.408  -0.403  -0.402  -0.377  -0.374  -0.360  -0.343  -0.283
 16 B    17 B    18 A    18 B    19 A    20 A    19 B    20 B
 -0.265  -0.258  -0.211
 21 B    21 A    22 A

 Beta MOs, Restricted
 -- Occupied --
-88.920 -88.920 -10.240 -10.239 -10.225 -10.225 -10.205 -10.205
  1 B     1 A     2 A     2 B     3 B     3 A     4 B     4 A
-10.203 -10.203  -7.980  -7.980  -5.944  -5.944  -5.940  -5.940
  5 B     5 A     6 B     6 A     7 B     7 A     8 B     8 A
 -5.937  -5.937  -0.901  -0.878  -0.772  -0.750  -0.737  -0.705
  9 A     9 B    10 A    10 B    11 A    12 A    11 B    12 B
 -0.604  -0.580  -0.553  -0.533  -0.528  -0.477  -0.422  -0.419
 13 A    14 A    13 B    14 B    15 A    15 B    16 A    17 A
 -0.408  -0.403  -0.402  -0.377  -0.374  -0.360  -0.343  -0.283
 16 B    17 B    18 A    18 B    19 A    20 A    19 B    20 B
 -0.265  -0.258  -0.211
 21 B    21 A    22 A

          Ground-State Mulliken Net Atomic Charges

     Atom                 Charge (a.u.)
  ----------------------------------------
      1 S                    -0.140762
      2 C                     0.025186
      3 C                    -0.400534
      4 C                     0.361297
      5 C                    -0.273157
      6 H                     0.108797
      7 C                    -0.273157
      8 S                    -0.140762
      9 C                     0.361297
     10 C                     0.025186
     11 C                    -0.400534
     12 H                     0.119281
     13 H                     0.199892
     14 H                     0.119281
     15 H                     0.199892
     16 H                     0.108797
  ----------------------------------------
  Sum of atomic charges =    -0.000000

                    Cartesian Multipole Moments
 -----------------------------------------------------------------
    Charge (ESU x 10^10)
                -0.0000
    Dipole Moment (Debye)
         X       0.0000      Y       0.0000      Z      -1.0403
       Tot       1.0403
    Quadrupole Moments (Debye-Ang)
        XX     -60.8970     XY      -0.2322     YY     -78.8013
        XZ       0.0000     YZ       0.0000     ZZ     -67.7422

 Total job time:  52.35s(wall), 57.77s(cpu)
        *  Thank you very much for using Q-Chem.  Have a nice day.  *
