 Q-Chem 4.4, Q-Chem, Inc., Pleasanton, CA (2016)
 Q-Chem 4.4.1 for Intel X86 EM64T Linux

User input:
--------------------------------------------------------------
$molecule
 0  1
 S           1.82267924       -1.19997629        0.28714109
 C           3.20006180       -0.17260711        0.06528466
 C           2.82980603        1.10216298       -0.25610036
 C           1.41909100        1.26345446       -0.34254814
 C           0.71738150        0.10901545       -0.08456145
 H           0.93627498        2.19419272       -0.61095402
 C          -0.71741859       -0.10899254       -0.08455524
 S          -1.39609186       -1.60776208        0.52075255
 C          -1.72126984        0.72506696       -0.51850233
 C          -3.01125995       -1.07018357        0.19805783
 C          -3.02422551        0.17715712       -0.35817024
 H          -3.93285723        0.69486791       -0.63579907
 H           4.19429620       -0.57452886        0.18632814
 H           3.53860725        1.89960515       -0.43610218
 H          -3.84743414       -1.70850980        0.43898725
 H          -1.52994700        1.71274521       -0.91764392
$end

$rem
         jobtype = opt
        exchange = b3lyp
           basis = 6-31++g**
  max_scf_cycles = 75
      mem_static = 100
       mem_total = 1500
$end

$opt
CONSTRAINT
tors 4 5 7 9 10.0
ENDCONSTRAINT
$end

--------------------------------------------------------------

   33   -1104.8385630867      8.95E-09 Convergence criterion met
 Total energy in the final basis set = -1104.8385630867
   12   -1104.8390771129      1.83E-09 Convergence criterion met
 Total energy in the final basis set = -1104.8390771129
   10   -1104.8391267754      9.70E-09 Convergence criterion met
 Total energy in the final basis set = -1104.8391267754
   10   -1104.8391508222      6.72E-09 Convergence criterion met
 Total energy in the final basis set = -1104.8391508222
   10   -1104.8391610436      4.46E-09 Convergence criterion met
 Total energy in the final basis set = -1104.8391610436
   10   -1104.8391669556      2.99E-09 Convergence criterion met
 Total energy in the final basis set = -1104.8391669556
   10   -1104.8391692026      1.11E-09 Convergence criterion met
 Total energy in the final basis set = -1104.8391692026

             Standard Nuclear Orientation (Angstroms)
    I     Atom           X                Y                Z
 ----------------------------------------------------------------
    1      S       1.6661853263    -0.1459807345     1.1624752596
    2      C       3.1625161260    -0.0466405282     0.2917241056
    3      C       2.9518184989     0.0897483275    -1.0553967450
    4      C       1.5703825756     0.1242365491    -1.3995426460
    5      C       0.7271064201     0.0134324421    -0.3112927283
    6      H       1.2091999145     0.2443790389    -2.4142528961
    7      C      -0.7271064201    -0.0134324421    -0.3112927283
    8      S      -1.6661853263     0.1459807345     1.1624752596
    9      C      -1.5703825756    -0.1242365491    -1.3995426460
   10      C      -3.1625161260     0.0466405282     0.2917241056
   11      C      -2.9518184989    -0.0897483275    -1.0553967450
   12      H      -3.7551228121    -0.1692186199    -1.7790302579
   13      H       4.1010302728    -0.0936206625     0.8264885175
   14      H       3.7551228121     0.1692186199    -1.7790302579
   15      H      -4.1010302728     0.0936206625     0.8264885175
   16      H      -1.2091999145    -0.2443790389    -2.4142528961
 ----------------------------------------------------------------

    9   -1104.8391698986      4.43E-09 Convergence criterion met
 Total energy in the final basis set = -1104.8391698986
 Final energy is   -1104.83916989864
 **  OPTIMIZATION CONVERGED  **

             Orbital Energies (a.u.) and Symmetries
 --------------------------------------------------------------

 Alpha MOs, Restricted
 -- Occupied --
-88.920 -88.920 -10.240 -10.239 -10.225 -10.225 -10.205 -10.205
  1 B     1 A     2 A     2 B     3 B     3 A     4 B     4 A
-10.203 -10.203  -7.980  -7.979  -5.944  -5.944  -5.940  -5.940
  5 B     5 A     6 B     6 A     7 B     7 A     8 B     8 A
 -5.937  -5.937  -0.901  -0.878  -0.772  -0.750  -0.737  -0.705
  9 A     9 B    10 A    10 B    11 A    12 A    11 B    12 B
 -0.604  -0.580  -0.553  -0.533  -0.528  -0.477  -0.422  -0.419
 13 A    14 A    13 B    14 B    15 A    15 B    16 A    17 A
 -0.408  -0.403  -0.402  -0.377  -0.374  -0.360  -0.343  -0.283
 16 B    17 B    18 A    18 B    19 A    20 A    19 B    20 B
 -0.265  -0.258  -0.211
 21 B    21 A    22 A

 Beta MOs, Restricted
 -- Occupied --
-88.920 -88.920 -10.240 -10.239 -10.225 -10.225 -10.205 -10.205
  1 B     1 A     2 A     2 B     3 B     3 A     4 B     4 A
-10.203 -10.203  -7.980  -7.979  -5.944  -5.944  -5.940  -5.940
  5 B     5 A     6 B     6 A     7 B     7 A     8 B     8 A
 -5.937  -5.937  -0.901  -0.878  -0.772  -0.750  -0.737  -0.705
  9 A     9 B    10 A    10 B    11 A    12 A    11 B    12 B
 -0.604  -0.580  -0.553  -0.533  -0.528  -0.477  -0.422  -0.419
 13 A    14 A    13 B    14 B    15 A    15 B    16 A    17 A
 -0.408  -0.403  -0.402  -0.377  -0.374  -0.360  -0.343  -0.283
 16 B    17 B    18 A    18 B    19 A    20 A    19 B    20 B
 -0.265  -0.258  -0.211
 21 B    21 A    22 A

          Ground-State Mulliken Net Atomic Charges

     Atom                 Charge (a.u.)
  ----------------------------------------
      1 S                    -0.141214
      2 C                     0.025652
      3 C                    -0.401587
      4 C                     0.363023
      5 C                    -0.273938
      6 H                     0.108923
      7 C                    -0.273938
      8 S                    -0.141214
      9 C                     0.363023
     10 C                     0.025652
     11 C                    -0.401587
     12 H                     0.119234
     13 H                     0.199908
     14 H                     0.119234
     15 H                     0.199908
     16 H                     0.108923
  ----------------------------------------
  Sum of atomic charges =    -0.000000

                    Cartesian Multipole Moments
 -----------------------------------------------------------------
    Charge (ESU x 10^10)
                 0.0000
    Dipole Moment (Debye)
         X      -0.0000      Y      -0.0000      Z      -1.0414
       Tot       1.0414
    Quadrupole Moments (Debye-Ang)
        XX     -60.8929     XY       0.1383     YY     -78.8043
        XZ       0.0000     YZ      -0.0000     ZZ     -67.7380

 Total job time:  62.12s(wall), 69.18s(cpu)
        *  Thank you very much for using Q-Chem.  Have a nice day.  *
