 Q-Chem 4.4, Q-Chem, Inc., Pleasanton, CA (2016)
 Q-Chem 4.4.1 for Intel X86 EM64T Linux

User input:
--------------------------------------------------------------
$comment
<SCF Fix Strategy>{
    "current_method_id": 0,
    "methods": [
        "increase_iter",
        "rca_diis",
        "gwh",
        "gdm",
        "rca",
        "core+rca",
        "fon"
    ],
    "version": 2.0
}</SCF Fix Strategy>
$end

$molecule
 0  1
 S           1.82267924       -1.19997629        0.28714109
 C           3.20006180       -0.17260711        0.06528466
 C           2.82980603        1.10216298       -0.25610036
 C           1.41909100        1.26345446       -0.34254814
 C           0.71738150        0.10901545       -0.08456145
 H           0.93627498        2.19419272       -0.61095402
 C          -0.71741859       -0.10899254       -0.08455524
 S          -1.81064520        1.12054900       -0.68985535
 C          -1.42822116       -1.20358189        0.34939928
 C          -3.19323931        0.12748117       -0.36714764
 C          -2.83511888       -1.06741562        0.18907894
 H          -3.54896533       -1.83165080        0.46671480
 H           4.19429620       -0.57452886        0.18632814
 H           3.53860725        1.89960515       -0.43610218
 H          -4.18127904        0.48863065       -0.60806916
 H          -0.95216073       -2.08985584        0.74853799
$end

$rem
         jobtype = opt
        exchange = b3lyp
           basis = 6-31++g**
  max_scf_cycles = 200
      mem_static = 100
       mem_total = 1500
   scf_algorithm = diis
       scf_guess = sad
$end

$opt
CONSTRAINT
tors 4 5 7 9 -170.0
ENDCONSTRAINT
$end

--------------------------------------------------------------

   33   -1104.8403004667      9.34E-09 Convergence criterion met
 Total energy in the final basis set = -1104.8403004667
   11   -1104.8405477542      3.44E-09 Convergence criterion met
 Total energy in the final basis set = -1104.8405477542
   10   -1104.8405724084      1.98E-09 Convergence criterion met
 Total energy in the final basis set = -1104.8405724084
   10   -1104.8405831970      2.24E-09 Convergence criterion met
 Total energy in the final basis set = -1104.8405831970
    8   -1104.8405848316      9.60E-09 Convergence criterion met
 Total energy in the final basis set = -1104.8405848316

             Standard Nuclear Orientation (Angstroms)
    I     Atom           X                Y                Z
 ----------------------------------------------------------------
    1      S       1.8563248054    -1.2053295095    -0.1191804513
    2      C       3.2117082845    -0.1250655132    -0.0372711256
    3      C       2.8107546518     1.1792236174     0.0810241937
    4      C       1.3933311609     1.3210541937     0.1150811473
    5      C       0.7159073327     0.1221782280     0.0216586322
    6      H       0.8896308433     2.2758433276     0.2178969530
    7      C      -0.7159073327    -0.1221782280     0.0216586322
    8      S      -1.8563248054     1.2053295095    -0.1191804513
    9      C      -1.3933311609    -1.3210541937     0.1150811473
   10      C      -3.2117082845     0.1250655132    -0.0372711256
   11      C      -2.8107546518    -1.1792236174     0.0810241937
   12      H      -3.5015888774    -2.0119207422     0.1470113471
   13      H       4.2175367294    -0.5196233964    -0.0817596724
   14      H       3.5015888774     2.0119207422     0.1470113471
   15      H      -4.2175367294     0.5196233964    -0.0817596724
   16      H      -0.8896308433    -2.2758433276     0.2178969530
 ----------------------------------------------------------------

    9   -1104.8405857926      7.87E-09 Convergence criterion met
 Total energy in the final basis set = -1104.8405857926
 Final energy is   -1104.84058579258
 **  OPTIMIZATION CONVERGED  **

             Orbital Energies (a.u.) and Symmetries
 --------------------------------------------------------------

 Alpha MOs, Restricted
 -- Occupied --
-88.920 -88.920 -10.240 -10.239 -10.225 -10.225 -10.205 -10.205
  1 A     1 B     2 A     2 B     3 B     3 A     4 A     4 B
-10.204 -10.204  -7.979  -7.979  -5.943  -5.943  -5.940  -5.940
  5 B     5 A     6 A     6 B     7 A     7 B     8 B     8 A
 -5.936  -5.936  -0.901  -0.878  -0.772  -0.750  -0.737  -0.706
  9 B     9 A    10 A    10 B    11 A    11 B    12 A    12 B
 -0.604  -0.581  -0.551  -0.535  -0.527  -0.478  -0.420  -0.419
 13 A    13 B    14 A    14 B    15 A    15 B    16 B    16 A
 -0.408  -0.405  -0.402  -0.379  -0.374  -0.358  -0.343  -0.284
 17 A    17 B    18 A    19 A    18 B    19 B    20 A    21 A
 -0.265  -0.258  -0.212
 20 B    22 A    21 B

 Beta MOs, Restricted
 -- Occupied --
-88.920 -88.920 -10.240 -10.239 -10.225 -10.225 -10.205 -10.205
  1 A     1 B     2 A     2 B     3 B     3 A     4 A     4 B
-10.204 -10.204  -7.979  -7.979  -5.943  -5.943  -5.940  -5.940
  5 B     5 A     6 A     6 B     7 A     7 B     8 B     8 A
 -5.936  -5.936  -0.901  -0.878  -0.772  -0.750  -0.737  -0.706
  9 B     9 A    10 A    10 B    11 A    11 B    12 A    12 B
 -0.604  -0.581  -0.551  -0.535  -0.527  -0.478  -0.420  -0.419
 13 A    13 B    14 A    14 B    15 A    15 B    16 B    16 A
 -0.408  -0.405  -0.402  -0.379  -0.374  -0.358  -0.343  -0.284
 17 A    17 B    18 A    19 A    18 B    19 B    20 A    21 A
 -0.265  -0.258  -0.212
 20 B    22 A    21 B

          Ground-State Mulliken Net Atomic Charges

     Atom                 Charge (a.u.)
  ----------------------------------------
      1 S                    -0.136892
      2 C                     0.019579
      3 C                    -0.362937
      4 C                     0.420345
      5 C                    -0.379212
      6 H                     0.117893
      7 C                    -0.379212
      8 S                    -0.136892
      9 C                     0.420345
     10 C                     0.019579
     11 C                    -0.362937
     12 H                     0.121373
     13 H                     0.199851
     14 H                     0.121373
     15 H                     0.199851
     16 H                     0.117893
  ----------------------------------------
  Sum of atomic charges =    -0.000000

                    Cartesian Multipole Moments
 -----------------------------------------------------------------
    Charge (ESU x 10^10)
                 0.0000
    Dipole Moment (Debye)
         X      -0.0000      Y      -0.0000      Z       0.1142
       Tot       0.1142
    Quadrupole Moments (Debye-Ang)
        XX     -61.1641     XY       1.6417     YY     -68.0633
        XZ       0.0000     YZ      -0.0000     ZZ     -78.8592

 Total job time:  47.23s(wall), 52.34s(cpu)
        *  Thank you very much for using Q-Chem.  Have a nice day.  *
