 Q-Chem 4.4, Q-Chem, Inc., Pleasanton, CA (2016)
 Q-Chem 4.4.1 for Intel X86 EM64T Linux

User input:
--------------------------------------------------------------
$molecule
 0  1
 S           1.82267924       -1.19997629        0.28714109
 C           3.20006180       -0.17260711        0.06528466
 C           2.82980603        1.10216298       -0.25610036
 C           1.41909100        1.26345446       -0.34254814
 C           0.71738150        0.10901545       -0.08456145
 H           0.93627498        2.19419272       -0.61095402
 C          -0.71741859       -0.10899254       -0.08455524
 S          -1.73741424        0.63856867       -1.29866650
 C          -1.48044346       -0.85987328        0.77895727
 C          -3.15982414       -0.09244534       -0.63213887
 C          -2.86833709       -0.84878500        0.46713461
 H          -3.61608314       -1.38990488        1.03173975
 H           4.19429620       -0.57452886        0.18632814
 H           3.53860725        1.89960515       -0.43610218
 H          -4.11959609        0.08265599       -1.09351938
 H          -1.05343404       -1.42331042        1.59848657
$end

$rem
         jobtype = opt
        exchange = b3lyp
           basis = 6-31++g**
  max_scf_cycles = 75
      mem_static = 100
       mem_total = 1500
$end

$opt
CONSTRAINT
tors 4 5 7 9 -140.0
ENDCONSTRAINT
$end

--------------------------------------------------------------

   41   -1104.8399745364      9.40E-09 Convergence criterion met
 Total energy in the final basis set = -1104.8399745364
   11   -1104.8403754638      6.29E-09 Convergence criterion met
 Total energy in the final basis set = -1104.8403754638
   10   -1104.8404308883      4.76E-09 Convergence criterion met
 Total energy in the final basis set = -1104.8404308883
   10   -1104.8404486322      5.07E-09 Convergence criterion met
 Total energy in the final basis set = -1104.8404486322
    9   -1104.8404510387      4.12E-09 Convergence criterion met
 Total energy in the final basis set = -1104.8404510387
    9   -1104.8404524099      5.13E-09 Convergence criterion met
 Total energy in the final basis set = -1104.8404524099

             Standard Nuclear Orientation (Angstroms)
    I     Atom           X                Y                Z
 ----------------------------------------------------------------
    1      S       1.8316732112    -1.1534614589    -0.3993492949
    2      C       3.2057377962    -0.1437762492    -0.0825673697
    3      C       2.8286208770     1.1014791376     0.3475933710
    4      C       1.4138934501     1.2490394357     0.4426681678
    5      C       0.7184078025     0.1161540568     0.0760209613
    6      H       0.9218014063     2.1493311124     0.7932692577
    7      C      -0.7184078025    -0.1161540568     0.0760209613
    8      S      -1.8316732112     1.1534614589    -0.3993492949
    9      C      -1.4138934501    -1.2490394357     0.4426681678
   10      C      -3.2057377962     0.1437762492    -0.0825673697
   11      C      -2.8286208770    -1.1014791376     0.3475933710
   12      H      -3.5351462665    -1.8837411272     0.6007342390
   13      H       4.2053521533    -0.5273995290    -0.2346758877
   14      H       3.5351462665     1.8837411272     0.6007342390
   15      H      -4.2053521533     0.5273995290    -0.2346758877
   16      H      -0.9218014063    -2.1493311124     0.7932692577
 ----------------------------------------------------------------

    8   -1104.8404526020      5.86E-09 Convergence criterion met
 Total energy in the final basis set = -1104.8404526020
 Final energy is   -1104.84045260201
 **  OPTIMIZATION CONVERGED  **

             Orbital Energies (a.u.) and Symmetries
 --------------------------------------------------------------

 Alpha MOs, Restricted
 -- Occupied --
-88.920 -88.920 -10.238 -10.238 -10.225 -10.225 -10.204 -10.204
  1 B     1 A     2 A     2 B     3 B     3 A     4 A     4 B
-10.203 -10.203  -7.979  -7.979  -5.943  -5.943  -5.940  -5.940
  5 B     5 A     6 B     6 A     7 A     7 B     8 B     8 A
 -5.936  -5.936  -0.900  -0.878  -0.771  -0.748  -0.738  -0.705
  9 B     9 A    10 A    10 B    11 A    11 B    12 A    12 B
 -0.603  -0.578  -0.554  -0.534  -0.525  -0.478  -0.419  -0.418
 13 A    13 B    14 A    14 B    15 A    15 B    16 B    16 A
 -0.408  -0.405  -0.399  -0.377  -0.374  -0.356  -0.346  -0.274
 17 A    17 B    18 A    19 A    18 B    19 B    20 A    21 A
 -0.262  -0.261  -0.218
 20 B    22 A    21 B

 Beta MOs, Restricted
 -- Occupied --
-88.920 -88.920 -10.238 -10.238 -10.225 -10.225 -10.204 -10.204
  1 B     1 A     2 A     2 B     3 B     3 A     4 A     4 B
-10.203 -10.203  -7.979  -7.979  -5.943  -5.943  -5.940  -5.940
  5 B     5 A     6 B     6 A     7 A     7 B     8 B     8 A
 -5.936  -5.936  -0.900  -0.878  -0.771  -0.748  -0.738  -0.705
  9 B     9 A    10 A    10 B    11 A    11 B    12 A    12 B
 -0.603  -0.578  -0.554  -0.534  -0.525  -0.478  -0.419  -0.418
 13 A    13 B    14 A    14 B    15 A    15 B    16 B    16 A
 -0.408  -0.405  -0.399  -0.377  -0.374  -0.356  -0.346  -0.274
 17 A    17 B    18 A    19 A    18 B    19 B    20 A    21 A
 -0.262  -0.261  -0.218
 20 B    22 A    21 B

          Ground-State Mulliken Net Atomic Charges

     Atom                 Charge (a.u.)
  ----------------------------------------
      1 S                    -0.020983
      2 C                    -0.034813
      3 C                    -0.408557
      4 C                     0.274563
      5 C                    -0.245729
      6 H                     0.132931
      7 C                    -0.245729
      8 S                    -0.020983
      9 C                     0.274563
     10 C                    -0.034813
     11 C                    -0.408557
     12 H                     0.114883
     13 H                     0.187705
     14 H                     0.114883
     15 H                     0.187705
     16 H                     0.132931
  ----------------------------------------
  Sum of atomic charges =    -0.000000

                    Cartesian Multipole Moments
 -----------------------------------------------------------------
    Charge (ESU x 10^10)
                -0.0000
    Dipole Moment (Debye)
         X      -0.0000      Y       0.0000      Z       0.4326
       Tot       0.4326
    Quadrupole Moments (Debye-Ang)
        XX     -61.1610     XY       1.4214     YY     -69.1785
        XZ      -0.0000     YZ       0.0000     ZZ     -77.6356

 Total job time:  55.77s(wall), 61.89s(cpu)
        *  Thank you very much for using Q-Chem.  Have a nice day.  *
