 Q-Chem 4.4, Q-Chem, Inc., Pleasanton, CA (2016)
 Q-Chem 4.4.1 for Intel X86 EM64T Linux

User input:
--------------------------------------------------------------
$comment
<SCF Fix Strategy>{
    "current_method_id": 0,
    "methods": [
        "increase_iter",
        "diis_gdm",
        "gwh",
        "rca",
        "gdm",
        "core+gdm",
        "fon"
    ],
    "version": 2.0
}</SCF Fix Strategy>
$end

$molecule
 0  1
 S           1.82267924       -1.19997629        0.28714109
 C           3.20006180       -0.17260711        0.06528466
 C           2.82980603        1.10216298       -0.25610036
 C           1.41909100        1.26345446       -0.34254814
 C           0.71738150        0.10901545       -0.08456145
 H           0.93627498        2.19419272       -0.61095402
 C          -0.71741859       -0.10899254       -0.08455524
 S          -1.82059540        1.18606467        0.33868559
 C          -1.42060219       -1.25374626       -0.37909628
 C          -3.19923792        0.16697352        0.08830893
 C          -2.83082098       -1.09571524       -0.27952611
 H          -3.54064687       -1.88642511       -0.48358232
 H           4.19429620       -0.57452886        0.18632814
 H           3.53860725        1.89960515       -0.43610218
 H          -4.19277489        0.56431340        0.22866552
 H          -0.93931178       -2.17446090       -0.68252805
$end

$rem
         jobtype = opt
        exchange = b3lyp
           basis = 6-31++g**
  max_scf_cycles = 200
      mem_static = 100
       mem_total = 1500
   scf_algorithm = diis
       scf_guess = sad
$end

$opt
CONSTRAINT
tors 4 5 7 9 150.0
ENDCONSTRAINT
$end

--------------------------------------------------------------

   39   -1104.8405784169      7.86E-09 Convergence criterion met
 Total energy in the final basis set = -1104.8405784169
   14   -1104.8407352600      3.86E-09 Convergence criterion met
 Total energy in the final basis set = -1104.8407352600
    9   -1104.8407377663      4.69E-09 Convergence criterion met
 Total energy in the final basis set = -1104.8407377663
    9   -1104.8407392420      6.06E-09 Convergence criterion met
 Total energy in the final basis set = -1104.8407392420

             Standard Nuclear Orientation (Angstroms)
    I     Atom           X                Y                Z
 ----------------------------------------------------------------
    1      S       1.8387567692    -1.1762974447     0.3013273814
    2      C       3.2068205026    -0.1369532028     0.0619176080
    3      C       2.8219593255     1.1341848238    -0.2750243092
    4      C       1.4067211964     1.2796678118    -0.3594973327
    5      C       0.7173311674     0.1174063864    -0.0819960443
    6      H       0.9109103175     2.2024309572    -0.6394719871
    7      C      -0.7173311674    -0.1174063864    -0.0819960443
    8      S      -1.8387567692     1.1762974447     0.3013273814
    9      C      -1.4067211964    -1.2796678118    -0.3594973327
   10      C      -3.2068205026     0.1369532028     0.0619176080
   11      C      -2.8219593255    -1.1341848238    -0.2750243092
   12      H      -3.5234635617    -1.9376393034    -0.4684125290
   13      H       4.2085026739    -0.5255097021     0.1845914501
   14      H       3.5234635617     1.9376393034    -0.4684125290
   15      H      -4.2085026739     0.5255097021     0.1845914501
   16      H      -0.9109103175    -2.2024309572    -0.6394719871
 ----------------------------------------------------------------

    9   -1104.8407396840      4.58E-09 Convergence criterion met
 Total energy in the final basis set = -1104.8407396840
 Final energy is   -1104.84073968399
 **  OPTIMIZATION CONVERGED  **

             Orbital Energies (a.u.) and Symmetries
 --------------------------------------------------------------

 Alpha MOs, Restricted
 -- Occupied --
-88.920 -88.920 -10.239 -10.238 -10.225 -10.225 -10.204 -10.204
  1 B     1 A     2 A     2 B     3 B     3 A     4 B     4 A
-10.203 -10.203  -7.979  -7.979  -5.943  -5.943  -5.940  -5.940
  5 B     5 A     6 A     6 B     7 A     7 B     8 B     8 A
 -5.936  -5.936  -0.900  -0.878  -0.771  -0.749  -0.738  -0.706
  9 B     9 A    10 A    10 B    11 A    11 B    12 A    12 B
 -0.604  -0.579  -0.553  -0.534  -0.526  -0.478  -0.420  -0.418
 13 A    13 B    14 A    14 B    15 A    15 B    16 B    16 A
 -0.408  -0.405  -0.400  -0.378  -0.374  -0.357  -0.345  -0.278
 17 A    17 B    18 A    19 A    18 B    19 B    20 A    21 A
 -0.263  -0.260  -0.215
 20 B    22 A    21 B

 Beta MOs, Restricted
 -- Occupied --
-88.920 -88.920 -10.239 -10.238 -10.225 -10.225 -10.204 -10.204
  1 B     1 A     2 A     2 B     3 B     3 A     4 B     4 A
-10.203 -10.203  -7.979  -7.979  -5.943  -5.943  -5.940  -5.940
  5 B     5 A     6 A     6 B     7 A     7 B     8 B     8 A
 -5.936  -5.936  -0.900  -0.878  -0.771  -0.749  -0.738  -0.706
  9 B     9 A    10 A    10 B    11 A    11 B    12 A    12 B
 -0.604  -0.579  -0.553  -0.534  -0.526  -0.478  -0.420  -0.418
 13 A    13 B    14 A    14 B    15 A    15 B    16 B    16 A
 -0.408  -0.405  -0.400  -0.378  -0.374  -0.357  -0.345  -0.278
 17 A    17 B    18 A    19 A    18 B    19 B    20 A    21 A
 -0.263  -0.260  -0.215
 20 B    22 A    21 B

          Ground-State Mulliken Net Atomic Charges

     Atom                 Charge (a.u.)
  ----------------------------------------
      1 S                    -0.057960
      2 C                    -0.038736
      3 C                    -0.392603
      4 C                     0.306445
      5 C                    -0.248672
      6 H                     0.128692
      7 C                    -0.248672
      8 S                    -0.057960
      9 C                     0.306445
     10 C                    -0.038736
     11 C                    -0.392603
     12 H                     0.114925
     13 H                     0.187908
     14 H                     0.114925
     15 H                     0.187908
     16 H                     0.128692
  ----------------------------------------
  Sum of atomic charges =    -0.000000

                    Cartesian Multipole Moments
 -----------------------------------------------------------------
    Charge (ESU x 10^10)
                -0.0000
    Dipole Moment (Debye)
         X      -0.0000      Y      -0.0000      Z      -0.3303
       Tot       0.3303
    Quadrupole Moments (Debye-Ang)
        XX     -61.1487     XY       1.5144     YY     -68.7086
        XZ       0.0000     YZ      -0.0000     ZZ     -78.1373

 Total job time:  43.08s(wall), 48.35s(cpu)
        *  Thank you very much for using Q-Chem.  Have a nice day.  *
