 Q-Chem 4.4, Q-Chem, Inc., Pleasanton, CA (2016)
 Q-Chem 4.4.1 for Intel X86 EM64T Linux

User input:
--------------------------------------------------------------
$comment
<SCF Fix Strategy>{
    "current_method_id": 0,
    "methods": [
        "increase_iter",
        "rca_diis",
        "gwh",
        "gdm",
        "rca",
        "core+rca",
        "fon"
    ],
    "version": 2.0
}</SCF Fix Strategy>
$end

$molecule
 0  1
 S           1.82267924       -1.19997629        0.28714109
 C           3.20006180       -0.17260711        0.06528466
 C           2.82980603        1.10216298       -0.25610036
 C           1.41909100        1.26345446       -0.34254814
 C           0.71738150        0.10901545       -0.08456145
 H           0.93627498        2.19419272       -0.61095402
 C          -0.71741859       -0.10899254       -0.08455524
 S          -1.58882231       -0.33938404       -1.58817765
 C          -1.58588370       -0.16592207        0.98043775
 C          -3.09348023       -0.52908516       -0.75037786
 C          -2.93595531       -0.40375797        0.60050910
 H          -3.75307206       -0.48831675        1.30469932
 H           4.19429620       -0.57452886        0.18632814
 H           3.53860725        1.89960515       -0.43610218
 H          -3.99755079       -0.72058035       -1.30776522
 H          -1.25983779       -0.06487100        2.00752562
$end

$rem
         jobtype = opt
        exchange = b3lyp
           basis = 6-31++g**
  max_scf_cycles = 200
      mem_static = 100
       mem_total = 1500
   scf_algorithm = diis
       scf_guess = sad
$end

$opt
CONSTRAINT
tors 4 5 7 9 -100.0
ENDCONSTRAINT
$end

--------------------------------------------------------------

   87   -1104.8370439416      9.95E-09 Convergence criterion met
 Total energy in the final basis set = -1104.8370439416
   11   -1104.8374485421      7.31E-09 Convergence criterion met
 Total energy in the final basis set = -1104.8374485421
   10   -1104.8374834494      8.43E-09 Convergence criterion met
 Total energy in the final basis set = -1104.8374834494
   10   -1104.8374948318      7.56E-09 Convergence criterion met
 Total energy in the final basis set = -1104.8374948318
    9   -1104.8374982748      6.74E-09 Convergence criterion met
 Total energy in the final basis set = -1104.8374982748
    9   -1104.8375008853      9.55E-09 Convergence criterion met
 Total energy in the final basis set = -1104.8375008853

             Standard Nuclear Orientation (Angstroms)
    I     Atom           X                Y                Z
 ----------------------------------------------------------------
    1      S       1.7700346580    -0.9727061417    -0.7391188552
    2      C       3.1926083433    -0.1567172537    -0.1827748777
    3      C       2.8852096482     0.8734770014     0.6676253405
    4      C       1.4811102877     1.0106626075     0.8818520193
    5      C       0.7279136982     0.0892125977     0.1912894471
    6      H       1.0335574101     1.7570167383     1.5284889843
    7      C      -0.7279136982    -0.0892125977     0.1912894471
    8      S      -1.7700346580     0.9727061417    -0.7391188552
    9      C      -1.4811102877    -1.0106626075     0.8818520193
   10      C      -3.1926083433     0.1567172537    -0.1827748777
   11      C      -2.8852096482    -0.8734770014     0.6676253405
   12      H      -3.6320394063    -1.5091721550     1.1295696195
   13      H       4.1701040479    -0.4836947333    -0.5111005765
   14      H       3.6320394063     1.5091721550     1.1295696195
   15      H      -4.1701040479     0.4836947333    -0.5111005765
   16      H      -1.0335574101    -1.7570167383     1.5284889843
 ----------------------------------------------------------------

    9   -1104.8375016785      5.32E-09 Convergence criterion met
 Total energy in the final basis set = -1104.8375016785
 Final energy is   -1104.83750167853
 **  OPTIMIZATION CONVERGED  **

             Orbital Energies (a.u.) and Symmetries
 --------------------------------------------------------------

 Alpha MOs, Restricted
 -- Occupied --
-88.919 -88.919 -10.236 -10.235 -10.224 -10.224 -10.204 -10.204
  1 B     1 A     2 A     2 B     3 B     3 A     4 A     4 B
-10.203 -10.203  -7.978  -7.978  -5.942  -5.942  -5.939  -5.939
  5 B     5 A     6 B     6 A     7 B     7 A     8 B     8 A
 -5.936  -5.936  -0.898  -0.877  -0.768  -0.743  -0.740  -0.705
  9 B     9 A    10 A    10 B    11 A    11 B    12 A    12 B
 -0.600  -0.569  -0.562  -0.534  -0.523  -0.478  -0.417  -0.415
 13 A    13 B    14 A    14 B    15 A    15 B    16 A    16 B
 -0.411  -0.406  -0.394  -0.375  -0.375  -0.352  -0.349  -0.264
 17 A    17 B    18 A    19 A    18 B    19 B    20 A    21 A
 -0.257  -0.250  -0.236
 20 B    22 A    21 B

 Beta MOs, Restricted
 -- Occupied --
-88.919 -88.919 -10.236 -10.235 -10.224 -10.224 -10.204 -10.204
  1 B     1 A     2 A     2 B     3 B     3 A     4 A     4 B
-10.203 -10.203  -7.978  -7.978  -5.942  -5.942  -5.939  -5.939
  5 B     5 A     6 B     6 A     7 B     7 A     8 B     8 A
 -5.936  -5.936  -0.898  -0.877  -0.768  -0.743  -0.740  -0.705
  9 B     9 A    10 A    10 B    11 A    11 B    12 A    12 B
 -0.600  -0.569  -0.562  -0.534  -0.523  -0.478  -0.417  -0.415
 13 A    13 B    14 A    14 B    15 A    15 B    16 A    16 B
 -0.411  -0.406  -0.394  -0.375  -0.375  -0.352  -0.349  -0.264
 17 A    17 B    18 A    19 A    18 B    19 B    20 A    21 A
 -0.257  -0.250  -0.236
 20 B    22 A    21 B

          Ground-State Mulliken Net Atomic Charges

     Atom                 Charge (a.u.)
  ----------------------------------------
      1 S                     0.064776
      2 C                    -0.051061
      3 C                    -0.360651
      4 C                     0.274040
      5 C                    -0.366005
      6 H                     0.132700
      7 C                    -0.366005
      8 S                     0.064776
      9 C                     0.274040
     10 C                    -0.051061
     11 C                    -0.360651
     12 H                     0.118984
     13 H                     0.187217
     14 H                     0.118984
     15 H                     0.187217
     16 H                     0.132700
  ----------------------------------------
  Sum of atomic charges =    -0.000000

                    Cartesian Multipole Moments
 -----------------------------------------------------------------
    Charge (ESU x 10^10)
                -0.0000
    Dipole Moment (Debye)
         X       0.0000      Y      -0.0000      Z       0.7112
       Tot       0.7112
    Quadrupole Moments (Debye-Ang)
        XX     -61.1327     XY       1.3673     YY     -72.2730
        XZ      -0.0000     YZ       0.0000     ZZ     -74.2710

 Total job time:  71.28s(wall), 80.68s(cpu)
        *  Thank you very much for using Q-Chem.  Have a nice day.  *
