 Q-Chem 4.4, Q-Chem, Inc., Pleasanton, CA (2016)
 Q-Chem 4.4.1 for Intel X86 EM64T Linux

User input:
--------------------------------------------------------------
$comment
<SCF Fix Strategy>{
    "current_method_id": 0,
    "methods": [
        "increase_iter",
        "rca_diis",
        "gwh",
        "gdm",
        "rca",
        "core+rca",
        "fon"
    ],
    "version": 2.0
}</SCF Fix Strategy>
$end

$molecule
 0  1
 S           1.82267924       -1.19997629        0.28714109
 C           3.20006180       -0.17260711        0.06528466
 C           2.82980603        1.10216298       -0.25610036
 C           1.41909100        1.26345446       -0.34254814
 C           0.71738150        0.10901545       -0.08456145
 H           0.93627498        2.19419272       -0.61095402
 C          -0.71741859       -0.10899254       -0.08455524
 S          -1.38614167       -1.67327775       -0.50778838
 C          -1.72888881        0.77523133        0.20999324
 C          -3.00526133       -1.10967593       -0.25739874
 C          -3.02852341        0.20545674        0.11043480
 H          -3.94117570        0.74964222        0.31449805
 H           4.19429620       -0.57452886        0.18632814
 H           3.53860725        1.89960515       -0.43610218
 H          -3.83593829       -1.78419255       -0.39774743
 H          -1.54279596        1.79735026        0.51342212
$end

$rem
         jobtype = opt
        exchange = b3lyp
           basis = 6-31++g**
  max_scf_cycles = 200
      mem_static = 100
       mem_total = 1500
   scf_algorithm = diis
       scf_guess = sad
$end

$opt
CONSTRAINT
tors 4 5 7 9 -30.0
ENDCONSTRAINT
$end

--------------------------------------------------------------

   40   -1104.8393683706      8.73E-09 Convergence criterion met
 Total energy in the final basis set = -1104.8393683706
   11   -1104.8396853427      5.27E-09 Convergence criterion met
 Total energy in the final basis set = -1104.8396853427
   11   -1104.8397273678      7.08E-09 Convergence criterion met
 Total energy in the final basis set = -1104.8397273678
   11   -1104.8397375518      4.33E-09 Convergence criterion met
 Total energy in the final basis set = -1104.8397375518
   14   -1104.8396954453      8.43E-09 Convergence criterion met
 Total energy in the final basis set = -1104.8396954453
   10   -1104.8396978585      4.68E-09 Convergence criterion met
 Total energy in the final basis set = -1104.8396978585

             Standard Nuclear Orientation (Angstroms)
    I     Atom           X                Y                Z
 ----------------------------------------------------------------
    1      S       1.6769417417     0.3611006996     1.1259894356
    2      C       3.1640677927     0.0771921161     0.2804881840
    3      C       2.9423555001    -0.2805644019    -1.0237031954
    4      C       1.5570286540    -0.3465568390    -1.3516784219
    5      C       0.7268547488    -0.0296378454    -0.2961313554
    6      H       1.1787917937    -0.6461187453    -2.3222780793
    7      C      -0.7268547488     0.0296378454    -0.2961313554
    8      S      -1.6769417417    -0.3611006996     1.1259894356
    9      C      -1.5570286540     0.3465568390    -1.3516784219
   10      C      -3.1640677927    -0.0771921161     0.2804881840
   11      C      -2.9423555001     0.2805644019    -1.0237031954
   12      H      -3.7393100978     0.5048093178    -1.7236213380
   13      H       4.1077531020     0.1894495140     0.7964625933
   14      H       3.7393100978    -0.5048093178    -1.7236213380
   15      H      -4.1077531020    -0.1894495140     0.7964625933
   16      H      -1.1787917937     0.6461187453    -2.3222780793
 ----------------------------------------------------------------

    9   -1104.8396982549      3.15E-09 Convergence criterion met
 Total energy in the final basis set = -1104.8396982549
 Final energy is   -1104.83969825494
 **  OPTIMIZATION CONVERGED  **

             Orbital Energies (a.u.) and Symmetries
 --------------------------------------------------------------

 Alpha MOs, Restricted
 -- Occupied --
-88.920 -88.920 -10.238 -10.238 -10.225 -10.225 -10.205 -10.205
  1 B     1 A     2 A     2 B     3 B     3 A     4 A     4 B
-10.203 -10.203  -7.979  -7.979  -5.943  -5.943  -5.940  -5.940
  5 B     5 A     6 B     6 A     7 B     7 A     8 B     8 A
 -5.936  -5.936  -0.900  -0.878  -0.771  -0.748  -0.738  -0.705
  9 A     9 B    10 A    10 B    11 A    12 A    11 B    12 B
 -0.603  -0.578  -0.555  -0.533  -0.526  -0.477  -0.421  -0.417
 13 A    14 A    13 B    14 B    15 A    15 B    16 A    17 A
 -0.409  -0.403  -0.399  -0.376  -0.374  -0.357  -0.346  -0.277
 16 B    17 B    18 A    18 B    19 A    20 A    19 B    20 B
 -0.263  -0.260  -0.216
 21 B    21 A    22 A

 Beta MOs, Restricted
 -- Occupied --
-88.920 -88.920 -10.238 -10.238 -10.225 -10.225 -10.205 -10.205
  1 B     1 A     2 A     2 B     3 B     3 A     4 A     4 B
-10.203 -10.203  -7.979  -7.979  -5.943  -5.943  -5.940  -5.940
  5 B     5 A     6 B     6 A     7 B     7 A     8 B     8 A
 -5.936  -5.936  -0.900  -0.878  -0.771  -0.748  -0.738  -0.705
  9 A     9 B    10 A    10 B    11 A    12 A    11 B    12 B
 -0.603  -0.578  -0.555  -0.533  -0.526  -0.477  -0.421  -0.417
 13 A    14 A    13 B    14 B    15 A    15 B    16 A    17 A
 -0.409  -0.403  -0.399  -0.376  -0.374  -0.357  -0.346  -0.277
 16 B    17 B    18 A    18 B    19 A    20 A    19 B    20 B
 -0.263  -0.260  -0.216
 21 B    21 A    22 A

          Ground-State Mulliken Net Atomic Charges

     Atom                 Charge (a.u.)
  ----------------------------------------
      1 S                    -0.059787
      2 C                    -0.004818
      3 C                    -0.347021
      4 C                     0.300858
      5 C                    -0.336784
      6 H                     0.133313
      7 C                    -0.336784
      8 S                    -0.059787
      9 C                     0.300858
     10 C                    -0.004818
     11 C                    -0.347021
     12 H                     0.120271
     13 H                     0.193969
     14 H                     0.120271
     15 H                     0.193969
     16 H                     0.133313
  ----------------------------------------
  Sum of atomic charges =     0.000000

                    Cartesian Multipole Moments
 -----------------------------------------------------------------
    Charge (ESU x 10^10)
                -0.0000
    Dipole Moment (Debye)
         X      -0.0000      Y      -0.0000      Z      -1.0010
       Tot       1.0010
    Quadrupole Moments (Debye-Ang)
        XX     -60.9263     XY      -0.6226     YY     -78.0266
        XZ      -0.0000     YZ       0.0000     ZZ     -68.4908

 Total job time:  60.07s(wall), 66.85s(cpu)
        *  Thank you very much for using Q-Chem.  Have a nice day.  *
