 Q-Chem 4.4, Q-Chem, Inc., Pleasanton, CA (2016)
 Q-Chem 4.4.1 for Intel X86 EM64T Linux

User input:
--------------------------------------------------------------
$comment
<SCF Fix Strategy>{
    "current_method_id": 0,
    "methods": [
        "increase_iter",
        "rca_diis",
        "gwh",
        "gdm",
        "rca",
        "core+rca",
        "fon"
    ],
    "version": 2.0
}</SCF Fix Strategy>
$end

$molecule
 0  1
 S           1.82267924       -1.19997629        0.28714109
 C           3.20006180       -0.17260711        0.06528466
 C           2.82980603        1.10216298       -0.25610036
 C           1.41909100        1.26345446       -0.34254814
 C           0.71738150        0.10901545       -0.08456145
 H           0.93627498        2.19419272       -0.61095402
 C          -0.71741859       -0.10899254       -0.08455524
 S          -1.66695288        0.17482694       -1.53063137
 C          -1.53049494       -0.53045929        0.94158086
 C          -3.12821829       -0.30045920       -0.73019588
 C          -2.90037965       -0.63789679        0.57350730
 H          -3.68096223       -0.96290276        1.24861899
 H           4.19429620       -0.57452886        0.18632814
 H           3.53860725        1.89960515       -0.43610218
 H          -4.06141118       -0.30028790       -1.27227120
 H          -1.15121816       -0.77974374        1.92414543
$end

$rem
         jobtype = opt
        exchange = b3lyp
           basis = 6-31++g**
  max_scf_cycles = 200
      mem_static = 100
       mem_total = 1500
   scf_algorithm = diis
       scf_guess = sad
$end

$opt
CONSTRAINT
tors 4 5 7 9 -120.0
ENDCONSTRAINT
$end

--------------------------------------------------------------

  105   -1104.8385272006      8.58E-09 Convergence criterion met
 Total energy in the final basis set = -1104.8385272006
   11   -1104.8389483489      6.77E-09 Convergence criterion met
 Total energy in the final basis set = -1104.8389483489
   10   -1104.8390132105      5.32E-09 Convergence criterion met
 Total energy in the final basis set = -1104.8390132105
   11   -1104.8390481495      3.98E-09 Convergence criterion met
 Total energy in the final basis set = -1104.8390481495
   10   -1104.8390581900      4.62E-09 Convergence criterion met
 Total energy in the final basis set = -1104.8390581900
   10   -1104.8390646574      6.04E-09 Convergence criterion met
 Total energy in the final basis set = -1104.8390646574

             Standard Nuclear Orientation (Angstroms)
    I     Atom           X                Y                Z
 ----------------------------------------------------------------
    1      S       1.8094443251    -1.0894479729    -0.5630818163
    2      C       3.2024400745    -0.1625354859    -0.1118217921
    3      C       2.8510970467     1.0043003877     0.5157199479
    4      C       1.4393287940     1.1555162350     0.6506962245
    5      C       0.7224013220     0.1086039360     0.1145141821
    6      H       0.9621873775     1.9970235370     1.1403404985
    7      C      -0.7224013220    -0.1086039360     0.1145141821
    8      S      -1.8094443251     1.0894479729    -0.5630818163
    9      C      -1.4393287940    -1.1555162350     0.6506962245
   10      C      -3.2024400745     0.1625354859    -0.1118217921
   11      C      -2.8510970467    -1.0043003877     0.5157199479
   12      H      -3.5732521135    -1.7267340703     0.8789621588
   13      H       4.1947085161    -0.5300200443    -0.3357837768
   14      H       3.5732521135     1.7267340703     0.8789621588
   15      H      -4.1947085161     0.5300200443    -0.3357837768
   16      H      -0.9621873775    -1.9970235370     1.1403404985
 ----------------------------------------------------------------

    9   -1104.8390656417      3.82E-09 Convergence criterion met
 Total energy in the final basis set = -1104.8390656417
 Final energy is   -1104.83906564170
 **  OPTIMIZATION CONVERGED  **

             Orbital Energies (a.u.) and Symmetries
 --------------------------------------------------------------

 Alpha MOs, Restricted
 -- Occupied --
-88.920 -88.920 -10.237 -10.237 -10.224 -10.224 -10.204 -10.204
  1 B     1 A     2 A     2 B     3 B     3 A     4 A     4 B
-10.203 -10.203  -7.979  -7.979  -5.943  -5.943  -5.939  -5.939
  5 B     5 A     6 B     6 A     7 B     7 A     8 B     8 A
 -5.936  -5.936  -0.899  -0.878  -0.769  -0.745  -0.739  -0.705
  9 B     9 A    10 A    10 B    11 A    11 B    12 A    12 B
 -0.602  -0.574  -0.558  -0.534  -0.524  -0.478  -0.418  -0.417
 13 A    13 B    14 A    14 B    15 A    15 B    16 B    16 A
 -0.409  -0.405  -0.396  -0.376  -0.374  -0.354  -0.347  -0.265
 17 A    17 B    18 A    19 A    18 B    19 B    20 A    21 A
 -0.262  -0.259  -0.225
 22 A    20 B    21 B

 Beta MOs, Restricted
 -- Occupied --
-88.920 -88.920 -10.237 -10.237 -10.224 -10.224 -10.204 -10.204
  1 B     1 A     2 A     2 B     3 B     3 A     4 A     4 B
-10.203 -10.203  -7.979  -7.979  -5.943  -5.943  -5.939  -5.939
  5 B     5 A     6 B     6 A     7 B     7 A     8 B     8 A
 -5.936  -5.936  -0.899  -0.878  -0.769  -0.745  -0.739  -0.705
  9 B     9 A    10 A    10 B    11 A    11 B    12 A    12 B
 -0.602  -0.574  -0.558  -0.534  -0.524  -0.478  -0.418  -0.417
 13 A    13 B    14 A    14 B    15 A    15 B    16 B    16 A
 -0.409  -0.405  -0.396  -0.376  -0.374  -0.354  -0.347  -0.265
 17 A    17 B    18 A    19 A    18 B    19 B    20 A    21 A
 -0.262  -0.259  -0.225
 22 A    20 B    21 B

          Ground-State Mulliken Net Atomic Charges

     Atom                 Charge (a.u.)
  ----------------------------------------
      1 S                     0.043063
      2 C                    -0.041686
      3 C                    -0.388202
      4 C                     0.233589
      5 C                    -0.288104
      6 H                     0.136954
      7 C                    -0.288104
      8 S                     0.043063
      9 C                     0.233589
     10 C                    -0.041686
     11 C                    -0.388202
     12 H                     0.116615
     13 H                     0.187771
     14 H                     0.116615
     15 H                     0.187771
     16 H                     0.136954
  ----------------------------------------
  Sum of atomic charges =     0.000000

                    Cartesian Multipole Moments
 -----------------------------------------------------------------
    Charge (ESU x 10^10)
                 0.0000
    Dipole Moment (Debye)
         X      -0.0000      Y       0.0000      Z       0.5977
       Tot       0.5977
    Quadrupole Moments (Debye-Ang)
        XX     -61.1716     XY       1.2808     YY     -70.4554
        XZ       0.0000     YZ       0.0000     ZZ     -76.2472

 Total job time:  76.19s(wall), 86.52s(cpu)
        *  Thank you very much for using Q-Chem.  Have a nice day.  *
