 Q-Chem 4.4, Q-Chem, Inc., Pleasanton, CA (2016)
 Q-Chem 4.4.1 for Intel X86 EM64T Linux

User input:
--------------------------------------------------------------
$molecule
 0  1
 S           1.82267924       -1.19997629        0.28714109
 C           3.20006180       -0.17260711        0.06528466
 C           2.82980603        1.10216298       -0.25610036
 C           1.41909100        1.26345446       -0.34254814
 C           0.71738150        0.10901545       -0.08456145
 H           0.93627498        2.19419272       -0.61095402
 C          -0.71741859       -0.10899254       -0.08455524
 S          -1.53978418       -0.66204002        1.36152857
 C          -1.61899606        0.05194436       -1.11068391
 C          -3.07628097       -0.64224320        0.56110607
 C          -2.95896475       -0.25236171       -0.74259861
 H          -3.80086034       -0.17388013       -1.41770326
 H           4.19429620       -0.57452886        0.18632814
 H           3.53860725        1.89960515       -0.43610218
 H          -3.96730200       -0.91959125        1.10318929
 H          -1.33088958        0.40263310       -2.09325137
$end

$rem
         jobtype = opt
        exchange = b3lyp
           basis = 6-31++g**
  max_scf_cycles = 75
      mem_static = 100
       mem_total = 1500
$end

$opt
CONSTRAINT
tors 4 5 7 9 60.0
ENDCONSTRAINT
$end

--------------------------------------------------------------

   36   -1104.8380694102      8.39E-09 Convergence criterion met
 Total energy in the final basis set = -1104.8380694102
   11   -1104.8385339203      4.77E-09 Convergence criterion met
 Total energy in the final basis set = -1104.8385339203
   10   -1104.8386042776      3.68E-09 Convergence criterion met
 Total energy in the final basis set = -1104.8386042776
   10   -1104.8386213338      4.12E-09 Convergence criterion met
 Total energy in the final basis set = -1104.8386213338
    9   -1104.8386237959      4.05E-09 Convergence criterion met
 Total energy in the final basis set = -1104.8386237959
    9   -1104.8386249582      4.70E-09 Convergence criterion met
 Total energy in the final basis set = -1104.8386249582

             Standard Nuclear Orientation (Angstroms)
    I     Atom           X                Y                Z
 ----------------------------------------------------------------
    1      S       1.6909501824    -0.6324969223     1.0135781207
    2      C       3.1672025344    -0.1201531523     0.2637907397
    3      C       2.9353170975     0.5240776916    -0.9232722194
    4      C       1.5465923090     0.6221331676    -1.2350374297
    5      C       0.7298227900     0.0367007483    -0.2933689117
    6      H       1.1532716130     1.1199856208    -2.1140766150
    7      C      -0.7298227900    -0.0367007483    -0.2933689117
    8      S      -1.6909501824     0.6324969223     1.0135781207
    9      C      -1.5465923090    -0.6221331676    -1.2350374297
   10      C      -3.1672025344     0.1201531523     0.2637907397
   11      C      -2.9353170975    -0.5240776916    -0.9232722194
   12      H      -3.7250298198    -0.9254733027    -1.5481463118
   13      H       4.1158864298    -0.3238143325     0.7416504256
   14      H       3.7250298198     0.9254733027    -1.5481463118
   15      H      -4.1158864298     0.3238143325     0.7416504256
   16      H      -1.1532716130    -1.1199856208    -2.1140766150
 ----------------------------------------------------------------

    9   -1104.8386251633      2.31E-09 Convergence criterion met
 Total energy in the final basis set = -1104.8386251633
 Final energy is   -1104.83862516327
 **  OPTIMIZATION CONVERGED  **

             Orbital Energies (a.u.) and Symmetries
 --------------------------------------------------------------

 Alpha MOs, Restricted
 -- Occupied --
-88.919 -88.919 -10.237 -10.236 -10.225 -10.225 -10.204 -10.204
  1 B     1 A     2 A     2 B     3 B     3 A     4 A     4 B
-10.203 -10.203  -7.979  -7.979  -5.943  -5.943  -5.939  -5.939
  5 B     5 A     6 B     6 A     7 B     7 A     8 B     8 A
 -5.936  -5.936  -0.899  -0.878  -0.769  -0.745  -0.739  -0.705
  9 B     9 A    10 A    10 B    11 A    12 A    11 B    12 B
 -0.601  -0.572  -0.560  -0.534  -0.524  -0.477  -0.419  -0.415
 13 A    14 A    13 B    14 B    15 A    15 B    16 A    17 A
 -0.412  -0.404  -0.395  -0.375  -0.374  -0.353  -0.349  -0.263
 16 B    17 B    18 A    18 B    19 A    20 A    19 B    21 A
 -0.263  -0.258  -0.226
 20 B    21 B    22 A

 Beta MOs, Restricted
 -- Occupied --
-88.919 -88.919 -10.237 -10.236 -10.225 -10.225 -10.204 -10.204
  1 B     1 A     2 A     2 B     3 B     3 A     4 A     4 B
-10.203 -10.203  -7.979  -7.979  -5.943  -5.943  -5.939  -5.939
  5 B     5 A     6 B     6 A     7 B     7 A     8 B     8 A
 -5.936  -5.936  -0.899  -0.878  -0.769  -0.745  -0.739  -0.705
  9 B     9 A    10 A    10 B    11 A    12 A    11 B    12 B
 -0.601  -0.572  -0.560  -0.534  -0.524  -0.477  -0.419  -0.415
 13 A    14 A    13 B    14 B    15 A    15 B    16 A    17 A
 -0.412  -0.404  -0.395  -0.375  -0.374  -0.353  -0.349  -0.263
 16 B    17 B    18 A    18 B    19 A    20 A    19 B    21 A
 -0.263  -0.258  -0.226
 20 B    21 B    22 A

          Ground-State Mulliken Net Atomic Charges

     Atom                 Charge (a.u.)
  ----------------------------------------
      1 S                     0.022673
      2 C                    -0.043686
      3 C                    -0.425936
      4 C                     0.313410
      5 C                    -0.315032
      6 H                     0.143391
      7 C                    -0.315032
      8 S                     0.022673
      9 C                     0.313410
     10 C                    -0.043686
     11 C                    -0.425936
     12 H                     0.116550
     13 H                     0.188631
     14 H                     0.116550
     15 H                     0.188631
     16 H                     0.143391
  ----------------------------------------
  Sum of atomic charges =     0.000000

                    Cartesian Multipole Moments
 -----------------------------------------------------------------
    Charge (ESU x 10^10)
                -0.0000
    Dipole Moment (Debye)
         X      -0.0000      Y       0.0000      Z      -0.8877
       Tot       0.8877
    Quadrupole Moments (Debye-Ang)
        XX     -61.0168     XY       1.1286     YY     -76.1221
        XZ      -0.0000     YZ      -0.0000     ZZ     -70.3149

 Total job time:  54.49s(wall), 60.36s(cpu)
        *  Thank you very much for using Q-Chem.  Have a nice day.  *
