 Q-Chem 4.4, Q-Chem, Inc., Pleasanton, CA (2016)
 Q-Chem 4.4.1 for Intel X86 EM64T Linux

User input:
--------------------------------------------------------------
$molecule
 0  1
 S           1.82267924       -1.19997629        0.28714109
 C           3.20006180       -0.17260711        0.06528466
 C           2.82980603        1.10216298       -0.25610036
 C           1.41909100        1.26345446       -0.34254814
 C           0.71738150        0.10901545       -0.08456145
 H           0.93627498        2.19419272       -0.61095402
 C          -0.71741859       -0.10899254       -0.08455524
 S          -1.61791475       -0.14782904        1.41907485
 C          -1.56360731       -0.31259286       -1.14954079
 C          -3.11101902       -0.41361724        0.58128805
 C          -2.92338908       -0.48650053       -0.76960040
 H          -3.72875050       -0.64846613       -1.47378359
 H           4.19429620       -0.57452886        0.18632814
 H           3.53860725        1.89960515       -0.43610218
 H          -4.03116239       -0.49929880        1.13868331
 H          -1.22226995       -0.31223964       -2.17663156
$end

$rem
         jobtype = opt
        exchange = b3lyp
           basis = 6-31++g**
  max_scf_cycles = 75
      mem_static = 100
       mem_total = 1500
$end

$opt
CONSTRAINT
tors 4 5 7 9 80.0
ENDCONSTRAINT
$end

--------------------------------------------------------------

   38   -1104.8369587098      9.36E-09 Convergence criterion met
 Total energy in the final basis set = -1104.8369587098
   11   -1104.8373831502      6.77E-09 Convergence criterion met
 Total energy in the final basis set = -1104.8373831502
   10   -1104.8374229501      5.51E-09 Convergence criterion met
 Total energy in the final basis set = -1104.8374229501
    9   -1104.8374334733      9.11E-09 Convergence criterion met
 Total energy in the final basis set = -1104.8374334733
    9   -1104.8374352423      3.71E-09 Convergence criterion met
 Total energy in the final basis set = -1104.8374352423

             Standard Nuclear Orientation (Angstroms)
    I     Atom           X                Y                Z
 ----------------------------------------------------------------
    1      S      -1.7194124737     0.8096302325     0.8926390313
    2      C      -3.1763256896     0.1411426048     0.2364170050
    3      C      -2.9193514297    -0.7003411029    -0.8144311558
    4      C      -1.5253854956    -0.8178943222    -1.0970566499
    5      C      -0.7310155553    -0.0581663962    -0.2695909448
    6      H      -1.1121255741    -1.4443368692    -1.8794272559
    7      C       0.7310155553     0.0581663962    -0.2695909448
    8      S       1.7194124737    -0.8096302325     0.8926390313
    9      C       1.5253854956     0.8178943222    -1.0970566499
   10      C       3.1763256896    -0.1411426048     0.2364170050
   11      C       2.9193514297     0.7003411029    -0.8144311558
   12      H       3.6941144505     1.2229076959    -1.3639278704
   13      H      -4.1350057250     0.4082577005     0.6602815015
   14      H      -3.6941144505    -1.2229076959    -1.3639278704
   15      H       4.1350057250    -0.4082577005     0.6602815015
   16      H       1.1121255741     1.4443368692    -1.8794272559
 ----------------------------------------------------------------

    9   -1104.8374360228      3.79E-09 Convergence criterion met
 Total energy in the final basis set = -1104.8374360228
 Final energy is   -1104.83743602280
 **  OPTIMIZATION CONVERGED  **

             Orbital Energies (a.u.) and Symmetries
 --------------------------------------------------------------

 Alpha MOs, Restricted
 -- Occupied --
-88.919 -88.919 -10.236 -10.235 -10.225 -10.225 -10.204 -10.204
  1 B     1 A     2 A     2 B     3 B     3 A     4 A     4 B
-10.203 -10.203  -7.978  -7.978  -5.942  -5.942  -5.939  -5.939
  5 B     5 A     6 B     6 A     7 B     7 A     8 B     8 A
 -5.935  -5.935  -0.898  -0.877  -0.768  -0.743  -0.740  -0.705
  9 B     9 A    10 A    10 B    11 A    12 A    11 B    12 B
 -0.600  -0.567  -0.564  -0.534  -0.523  -0.478  -0.417  -0.414
 13 A    14 A    13 B    14 B    15 A    15 B    16 A    17 A
 -0.413  -0.405  -0.394  -0.375  -0.375  -0.351  -0.350  -0.264
 16 B    17 B    18 A    18 B    19 A    20 A    19 B    21 A
 -0.257  -0.250  -0.236
 20 B    21 B    22 A

 Beta MOs, Restricted
 -- Occupied --
-88.919 -88.919 -10.236 -10.235 -10.225 -10.225 -10.204 -10.204
  1 B     1 A     2 A     2 B     3 B     3 A     4 A     4 B
-10.203 -10.203  -7.978  -7.978  -5.942  -5.942  -5.939  -5.939
  5 B     5 A     6 B     6 A     7 B     7 A     8 B     8 A
 -5.935  -5.935  -0.898  -0.877  -0.768  -0.743  -0.740  -0.705
  9 B     9 A    10 A    10 B    11 A    12 A    11 B    12 B
 -0.600  -0.567  -0.564  -0.534  -0.523  -0.478  -0.417  -0.414
 13 A    14 A    13 B    14 B    15 A    15 B    16 A    17 A
 -0.413  -0.405  -0.394  -0.375  -0.375  -0.351  -0.350  -0.264
 16 B    17 B    18 A    18 B    19 A    20 A    19 B    21 A
 -0.257  -0.250  -0.236
 20 B    21 B    22 A

          Ground-State Mulliken Net Atomic Charges

     Atom                 Charge (a.u.)
  ----------------------------------------
      1 S                     0.046276
      2 C                    -0.035344
      3 C                    -0.404432
      4 C                     0.343233
      5 C                    -0.390638
      6 H                     0.134455
      7 C                    -0.390638
      8 S                     0.046276
      9 C                     0.343233
     10 C                    -0.035344
     11 C                    -0.404432
     12 H                     0.117955
     13 H                     0.188495
     14 H                     0.117955
     15 H                     0.188495
     16 H                     0.134455
  ----------------------------------------
  Sum of atomic charges =     0.000000

                    Cartesian Multipole Moments
 -----------------------------------------------------------------
    Charge (ESU x 10^10)
                 0.0000
    Dipole Moment (Debye)
         X      -0.0000      Y       0.0000      Z      -0.7947
       Tot       0.7947
    Quadrupole Moments (Debye-Ang)
        XX     -61.0714     XY       1.3789     YY     -74.3142
        XZ      -0.0000     YZ      -0.0000     ZZ     -72.1203

 Total job time:  47.32s(wall), 52.50s(cpu)
        *  Thank you very much for using Q-Chem.  Have a nice day.  *
