 Q-Chem 4.4, Q-Chem, Inc., Pleasanton, CA (2016)
 Q-Chem 4.4.1 for Intel X86 EM64T Linux

User input:
--------------------------------------------------------------
$molecule
 0  1
 S           1.82267924       -1.19997629        0.28714109
 C           3.20006180       -0.17260711        0.06528466
 C           2.82980603        1.10216298       -0.25610036
 C           1.41909100        1.26345446       -0.34254814
 C           0.71738150        0.10901545       -0.08456145
 H           0.93627498        2.19419272       -0.61095402
 C          -0.71741859       -0.10899254       -0.08455524
 S          -1.37840052       -1.72421804       -0.25024931
 C          -1.73423106        0.81038563        0.02733242
 C          -3.00222539       -1.12965343       -0.14265658
 C          -3.03210824        0.22904661       -0.00679709
 H          -3.94854328        0.79812450        0.07693473
 H           4.19429620       -0.57452886        0.18632814
 H           3.53860725        1.89960515       -0.43610218
 H          -3.83047792       -1.82012346       -0.18674192
 H          -1.55381163        1.86983868        0.15553071
$end

$rem
         jobtype = opt
        exchange = b3lyp
           basis = 6-31++g**
  max_scf_cycles = 75
      mem_static = 100
       mem_total = 1500
$end

$opt
CONSTRAINT
tors 4 5 7 9 -20.0
ENDCONSTRAINT
$end

--------------------------------------------------------------

   30   -1104.8390573394      8.09E-09 Convergence criterion met
 Total energy in the final basis set = -1104.8390573394
   11   -1104.8394193133      9.22E-09 Convergence criterion met
 Total energy in the final basis set = -1104.8394193133
   10   -1104.8394571372      8.43E-09 Convergence criterion met
 Total energy in the final basis set = -1104.8394571372
   10   -1104.8394697432      8.01E-09 Convergence criterion met
 Total energy in the final basis set = -1104.8394697432
   10   -1104.8394773984      7.42E-09 Convergence criterion met
 Total energy in the final basis set = -1104.8394773984
   10   -1104.8394814500      3.62E-09 Convergence criterion met
 Total energy in the final basis set = -1104.8394814500

             Standard Nuclear Orientation (Angstroms)
    I     Atom           X                Y                Z
 ----------------------------------------------------------------
    1      S       1.6716436162     0.2592908252     1.1476925126
    2      C       3.1632218711     0.0594306698     0.2862185410
    3      C       2.9465996722    -0.1951334289    -1.0428217897
    4      C       1.5631706636    -0.2463541209    -1.3787379528
    5      C       0.7266937382    -0.0262580292    -0.3026284666
    6      H       1.1931901010    -0.4648508056    -2.3737512409
    7      C      -0.7266937382     0.0262580292    -0.3026284666
    8      S      -1.6716436162    -0.2592908252     1.1476925126
    9      C      -1.5631706636     0.2463541209    -1.3787379528
   10      C      -3.1632218711    -0.0594306698     0.2862185410
   11      C      -2.9465996722     0.1951334289    -1.0428217897
   12      H      -3.7466676034     0.3536743150    -1.7569655029
   13      H       4.1044082525     0.1395623220     0.8124406119
   14      H       3.7466676034    -0.3536743150    -1.7569655029
   15      H      -4.1044082525    -0.1395623220     0.8124406119
   16      H      -1.1931901010     0.4648508056    -2.3737512409
 ----------------------------------------------------------------

    9   -1104.8394822198      4.90E-09 Convergence criterion met
 Total energy in the final basis set = -1104.8394822198
 Final energy is   -1104.83948221977
 **  OPTIMIZATION CONVERGED  **

             Orbital Energies (a.u.) and Symmetries
 --------------------------------------------------------------

 Alpha MOs, Restricted
 -- Occupied --
-88.920 -88.920 -10.239 -10.239 -10.225 -10.225 -10.205 -10.205
  1 B     1 A     2 A     2 B     3 B     3 A     4 A     4 B
-10.203 -10.203  -7.979  -7.979  -5.944  -5.944  -5.940  -5.940
  5 B     5 A     6 B     6 A     7 B     7 A     8 B     8 A
 -5.937  -5.937  -0.900  -0.878  -0.771  -0.749  -0.737  -0.705
  9 A     9 B    10 A    10 B    11 A    12 A    11 B    12 B
 -0.604  -0.579  -0.554  -0.533  -0.527  -0.477  -0.421  -0.418
 13 A    14 A    13 B    14 B    15 A    15 B    16 A    17 A
 -0.409  -0.403  -0.401  -0.377  -0.374  -0.359  -0.344  -0.280
 16 B    17 B    18 A    18 B    19 A    20 A    19 B    20 B
 -0.264  -0.259  -0.213
 21 B    21 A    22 A

 Beta MOs, Restricted
 -- Occupied --
-88.920 -88.920 -10.239 -10.239 -10.225 -10.225 -10.205 -10.205
  1 B     1 A     2 A     2 B     3 B     3 A     4 A     4 B
-10.203 -10.203  -7.979  -7.979  -5.944  -5.944  -5.940  -5.940
  5 B     5 A     6 B     6 A     7 B     7 A     8 B     8 A
 -5.937  -5.937  -0.900  -0.878  -0.771  -0.749  -0.737  -0.705
  9 A     9 B    10 A    10 B    11 A    12 A    11 B    12 B
 -0.604  -0.579  -0.554  -0.533  -0.527  -0.477  -0.421  -0.418
 13 A    14 A    13 B    14 B    15 A    15 B    16 A    17 A
 -0.409  -0.403  -0.401  -0.377  -0.374  -0.359  -0.344  -0.280
 16 B    17 B    18 A    18 B    19 A    20 A    19 B    20 B
 -0.264  -0.259  -0.213
 21 B    21 A    22 A

          Ground-State Mulliken Net Atomic Charges

     Atom                 Charge (a.u.)
  ----------------------------------------
      1 S                    -0.099933
      2 C                     0.008619
      3 C                    -0.350433
      4 C                     0.325213
      5 C                    -0.321328
      6 H                     0.121649
      7 C                    -0.321328
      8 S                    -0.099933
      9 C                     0.325213
     10 C                     0.008619
     11 C                    -0.350433
     12 H                     0.120169
     13 H                     0.196045
     14 H                     0.120169
     15 H                     0.196045
     16 H                     0.121649
  ----------------------------------------
  Sum of atomic charges =    -0.000000

                    Cartesian Multipole Moments
 -----------------------------------------------------------------
    Charge (ESU x 10^10)
                -0.0000
    Dipole Moment (Debye)
         X      -0.0000      Y      -0.0000      Z      -1.0246
       Tot       1.0246
    Quadrupole Moments (Debye-Ang)
        XX     -60.8996     XY      -0.4288     YY     -78.4723
        XZ      -0.0000     YZ       0.0000     ZZ     -68.0622

 Total job time:  53.87s(wall), 59.77s(cpu)
        *  Thank you very much for using Q-Chem.  Have a nice day.  *
