 Q-Chem 4.4, Q-Chem, Inc., Pleasanton, CA (2016)
 Q-Chem 4.4.1 for Intel X86 EM64T Linux

User input:
--------------------------------------------------------------
$molecule
 0  1
 S           1.82267924       -1.19997629        0.28714109
 C           3.20006180       -0.17260711        0.06528466
 C           2.82980603        1.10216298       -0.25610036
 C           1.41909100        1.26345446       -0.34254814
 C           0.71738150        0.10901545       -0.08456145
 H           0.93627498        2.19419272       -0.61095402
 C          -0.71741859       -0.10899254       -0.08455524
 S          -1.78574788        0.95673227        0.80774975
 C          -1.44503275       -1.09296821       -0.71229100
 C          -3.18450701        0.07002933        0.29871021
 C          -2.84680108       -0.99054972       -0.49283471
 H          -3.57322808       -1.67200714       -0.91548521
 H           4.19429620       -0.57452886        0.18632814
 H           3.53860725        1.89960515       -0.43610218
 H          -4.16592133        0.38759017        0.61600453
 H          -0.98823467       -1.85249779       -1.33348106
$end

$rem
         jobtype = opt
        exchange = b3lyp
           basis = 6-31++g**
  max_scf_cycles = 75
      mem_static = 100
       mem_total = 1500
$end

$opt
CONSTRAINT
tors 4 5 7 9 130.0
ENDCONSTRAINT
$end

--------------------------------------------------------------

   27   -1104.8395994744      5.71E-09 Convergence criterion met
 Total energy in the final basis set = -1104.8395994744
   11   -1104.8397905212      3.70E-09 Convergence criterion met
 Total energy in the final basis set = -1104.8397905212
   10   -1104.8398248259      6.25E-09 Convergence criterion met
 Total energy in the final basis set = -1104.8398248259
   11   -1104.8398640244      5.78E-09 Convergence criterion met
 Total energy in the final basis set = -1104.8398640244
    9   -1104.8398684081      9.50E-09 Convergence criterion met
 Total energy in the final basis set = -1104.8398684081

             Standard Nuclear Orientation (Angstroms)
    I     Atom           X                Y                Z
 ----------------------------------------------------------------
    1      S       1.8201242891    -1.1292592958     0.4656574965
    2      C       3.2041422516    -0.1599603811     0.0775558427
    3      C       2.8401196680     1.0522994149    -0.4480763017
    4      C       1.4267438901     1.2053788936    -0.5581524566
    5      C       0.7203294704     0.1120561737    -0.1050208282
    6      H       0.9419295963     2.0808213921    -0.9753869785
    7      C      -0.7203294704    -0.1120561737    -0.1050208282
    8      S      -1.8201242891     1.1292592958     0.4656574965
    9      C      -1.4267438901    -1.2053788936    -0.5581524566
   10      C      -3.2041422516     0.1599603811     0.0775558427
   11      C      -2.8401196680    -1.0522994149    -0.4480763017
   12      H      -3.5549521008    -1.8058896328    -0.7586043247
   13      H       4.2002250798    -0.5392237599     0.2609258184
   14      H       3.5549521008     1.8058896328    -0.7586043247
   15      H      -4.2002250798     0.5392237599     0.2609258184
   16      H      -0.9419295963    -2.0808213921    -0.9753869785
 ----------------------------------------------------------------

    9   -1104.8398697121      5.40E-09 Convergence criterion met
 Total energy in the final basis set = -1104.8398697121
 Final energy is   -1104.83986971211
 **  OPTIMIZATION CONVERGED  **

             Orbital Energies (a.u.) and Symmetries
 --------------------------------------------------------------

 Alpha MOs, Restricted
 -- Occupied --
-88.920 -88.920 -10.238 -10.237 -10.224 -10.224 -10.204 -10.204
  1 B     1 A     2 A     2 B     3 B     3 A     4 A     4 B
-10.203 -10.203  -7.979  -7.979  -5.943  -5.943  -5.940  -5.940
  5 B     5 A     6 B     6 A     7 B     7 A     8 B     8 A
 -5.936  -5.936  -0.899  -0.878  -0.770  -0.747  -0.738  -0.705
  9 B     9 A    10 A    10 B    11 A    11 B    12 A    12 B
 -0.602  -0.576  -0.556  -0.534  -0.525  -0.478  -0.418  -0.418
 13 A    13 B    14 A    14 B    15 A    15 B    16 B    16 A
 -0.409  -0.405  -0.397  -0.377  -0.374  -0.355  -0.347  -0.270
 17 A    17 B    18 A    19 A    18 B    19 B    20 A    21 A
 -0.262  -0.260  -0.221
 22 A    20 B    21 B

 Beta MOs, Restricted
 -- Occupied --
-88.920 -88.920 -10.238 -10.237 -10.224 -10.224 -10.204 -10.204
  1 B     1 A     2 A     2 B     3 B     3 A     4 A     4 B
-10.203 -10.203  -7.979  -7.979  -5.943  -5.943  -5.940  -5.940
  5 B     5 A     6 B     6 A     7 B     7 A     8 B     8 A
 -5.936  -5.936  -0.899  -0.878  -0.770  -0.747  -0.738  -0.705
  9 B     9 A    10 A    10 B    11 A    11 B    12 A    12 B
 -0.602  -0.576  -0.556  -0.534  -0.525  -0.478  -0.418  -0.418
 13 A    13 B    14 A    14 B    15 A    15 B    16 B    16 A
 -0.409  -0.405  -0.397  -0.377  -0.374  -0.355  -0.347  -0.270
 17 A    17 B    18 A    19 A    18 B    19 B    20 A    21 A
 -0.262  -0.260  -0.221
 22 A    20 B    21 B

          Ground-State Mulliken Net Atomic Charges

     Atom                 Charge (a.u.)
  ----------------------------------------
      1 S                     0.014049
      2 C                    -0.034894
      3 C                    -0.407597
      4 C                     0.246223
      5 C                    -0.256953
      6 H                     0.135987
      7 C                    -0.256953
      8 S                     0.014049
      9 C                     0.246223
     10 C                    -0.034894
     11 C                    -0.407597
     12 H                     0.115400
     13 H                     0.187785
     14 H                     0.115400
     15 H                     0.187785
     16 H                     0.135987
  ----------------------------------------
  Sum of atomic charges =    -0.000000

                    Cartesian Multipole Moments
 -----------------------------------------------------------------
    Charge (ESU x 10^10)
                -0.0000
    Dipole Moment (Debye)
         X      -0.0000      Y       0.0000      Z      -0.5228
       Tot       0.5228
    Quadrupole Moments (Debye-Ang)
        XX     -61.1632     XY       1.3115     YY     -69.7583
        XZ      -0.0000     YZ      -0.0000     ZZ     -76.9988

 Total job time:  45.19s(wall), 50.21s(cpu)
        *  Thank you very much for using Q-Chem.  Have a nice day.  *
