 Q-Chem 4.4, Q-Chem, Inc., Pleasanton, CA (2016)
 Q-Chem 4.4.1 for Intel X86 EM64T Linux

User input:
--------------------------------------------------------------
$comment
<SCF Fix Strategy>{
    "current_method_id": 0,
    "methods": [
        "increase_iter",
        "diis_gdm",
        "gwh",
        "rca",
        "gdm",
        "core+gdm",
        "fon"
    ],
    "version": 2.0
}</SCF Fix Strategy>
$end

$molecule
 0  1
 S           1.82267924       -1.19997629        0.28714109
 C           3.20006180       -0.17260711        0.06528466
 C           2.82980603        1.10216298       -0.25610036
 C           1.41909100        1.26345446       -0.34254814
 C           0.71738150        0.10901545       -0.08456145
 H           0.93627498        2.19419272       -0.61095402
 C          -0.71741859       -0.10899254       -0.08455524
 S          -1.50302912       -0.90394287        1.26606504
 C          -1.64509050        0.22368448       -1.04394749
 C          -3.05983365       -0.75049089        0.52128143
 C          -2.97568506       -0.14231721       -0.69874330
 H          -3.83472513        0.04900050       -1.32815695
 H           4.19429620       -0.57452886        0.18632814
 H           3.53860725        1.89960515       -0.43610218
 H          -3.93703486       -1.11879384        1.03075727
 H          -1.38192174        0.73850050       -1.95889744
$end

$rem
         jobtype = opt
        exchange = b3lyp
           basis = 6-31++g**
  max_scf_cycles = 200
      mem_static = 100
       mem_total = 1500
   scf_algorithm = diis
       scf_guess = sad
$end

$opt
CONSTRAINT
tors 4 5 7 9 50.0
ENDCONSTRAINT
$end

--------------------------------------------------------------

  101   -1104.8386616768      8.69E-09 Convergence criterion met
 Total energy in the final basis set = -1104.8386616768
   11   -1104.8391514090      5.43E-09 Convergence criterion met
 Total energy in the final basis set = -1104.8391514090
   10   -1104.8392365131      5.52E-09 Convergence criterion met
 Total energy in the final basis set = -1104.8392365131
   10   -1104.8392551297      8.51E-09 Convergence criterion met
 Total energy in the final basis set = -1104.8392551297
    9   -1104.8392573041      2.44E-09 Convergence criterion met
 Total energy in the final basis set = -1104.8392573041

             Standard Nuclear Orientation (Angstroms)
    I     Atom           X                Y                Z
 ----------------------------------------------------------------
    1      S       1.6832522114    -0.5449127045     1.0580449106
    2      C       3.1650311758    -0.1115135376     0.2691139439
    3      C       2.9389033949     0.4360389893    -0.9665341165
    4      C       1.5515726344     0.5259670848    -1.2849376177
    5      C       0.7286933170     0.0304385301    -0.2968471798
    6      H       1.1642186625     0.9600363923    -2.1995990178
    7      C      -0.7286933170    -0.0304385301    -0.2968471798
    8      S      -1.6832522114     0.5449127045     1.0580449106
    9      C      -1.5515726344    -0.5259670848    -1.2849376177
   10      C      -3.1650311758     0.1115135376     0.2691139439
   11      C      -2.9389033949    -0.4360389893    -0.9665341165
   12      H      -3.7323880905    -0.7778440657    -1.6213948827
   13      H       4.1112804940    -0.2848566630     0.7633069794
   14      H       3.7323880905     0.7778440657    -1.6213948827
   15      H      -4.1112804940     0.2848566630     0.7633069794
   16      H      -1.1642186625    -0.9600363923    -2.1995990178
 ----------------------------------------------------------------

    9   -1104.8392580980      2.11E-09 Convergence criterion met
 Total energy in the final basis set = -1104.8392580980
 Final energy is   -1104.83925809800
 **  OPTIMIZATION CONVERGED  **

             Orbital Energies (a.u.) and Symmetries
 --------------------------------------------------------------

 Alpha MOs, Restricted
 -- Occupied --
-88.920 -88.920 -10.237 -10.237 -10.225 -10.225 -10.204 -10.204
  1 B     1 A     2 A     2 B     3 B     3 A     4 B     4 A
-10.203 -10.203  -7.979  -7.979  -5.943  -5.943  -5.939  -5.939
  5 B     5 A     6 B     6 A     7 B     7 A     8 B     8 A
 -5.936  -5.936  -0.899  -0.878  -0.770  -0.746  -0.738  -0.705
  9 A     9 B    10 A    10 B    11 A    12 A    11 B    12 B
 -0.602  -0.574  -0.558  -0.534  -0.524  -0.477  -0.419  -0.416
 13 A    14 A    13 B    14 B    15 A    15 B    16 A    17 A
 -0.411  -0.404  -0.397  -0.376  -0.374  -0.355  -0.348  -0.268
 16 B    17 B    18 A    18 B    19 A    20 A    19 B    20 B
 -0.262  -0.260  -0.222
 21 A    21 B    22 A

 Beta MOs, Restricted
 -- Occupied --
-88.920 -88.920 -10.237 -10.237 -10.225 -10.225 -10.204 -10.204
  1 B     1 A     2 A     2 B     3 B     3 A     4 B     4 A
-10.203 -10.203  -7.979  -7.979  -5.943  -5.943  -5.939  -5.939
  5 B     5 A     6 B     6 A     7 B     7 A     8 B     8 A
 -5.936  -5.936  -0.899  -0.878  -0.770  -0.746  -0.738  -0.705
  9 A     9 B    10 A    10 B    11 A    12 A    11 B    12 B
 -0.602  -0.574  -0.558  -0.534  -0.524  -0.477  -0.419  -0.416
 13 A    14 A    13 B    14 B    15 A    15 B    16 A    17 A
 -0.411  -0.404  -0.397  -0.376  -0.374  -0.355  -0.348  -0.268
 16 B    17 B    18 A    18 B    19 A    20 A    19 B    20 B
 -0.262  -0.260  -0.222
 21 A    21 B    22 A

          Ground-State Mulliken Net Atomic Charges

     Atom                 Charge (a.u.)
  ----------------------------------------
      1 S                     0.005269
      2 C                    -0.055133
      3 C                    -0.414934
      4 C                     0.284420
      5 C                    -0.268424
      6 H                     0.144663
      7 C                    -0.268424
      8 S                     0.005269
      9 C                     0.284420
     10 C                    -0.055133
     11 C                    -0.414934
     12 H                     0.116396
     13 H                     0.187743
     14 H                     0.116396
     15 H                     0.187743
     16 H                     0.144663
  ----------------------------------------
  Sum of atomic charges =     0.000000

                    Cartesian Multipole Moments
 -----------------------------------------------------------------
    Charge (ESU x 10^10)
                 0.0000
    Dipole Moment (Debye)
         X      -0.0000      Y      -0.0000      Z      -0.9286
       Tot       0.9286
    Quadrupole Moments (Debye-Ang)
        XX     -60.9900     XY       0.9576     YY     -76.8682
        XZ      -0.0000     YZ      -0.0000     ZZ     -69.5887

 Total job time:  73.96s(wall), 84.10s(cpu)
        *  Thank you very much for using Q-Chem.  Have a nice day.  *
