 Q-Chem 4.4, Q-Chem, Inc., Pleasanton, CA (2016)
 Q-Chem 4.4.1 for Intel X86 EM64T Linux

User input:
--------------------------------------------------------------
$molecule
 0  1
 S           1.82267924       -1.19997629        0.28714109
 C           3.20006180       -0.17260711        0.06528466
 C           2.82980603        1.10216298       -0.25610036
 C           1.41909100        1.26345446       -0.34254814
 C           0.71738150        0.10901545       -0.08456145
 H           0.93627498        2.19419272       -0.61095402
 C          -0.71741859       -0.10899254       -0.08455524
 S          -1.82924214        1.24295763       -0.18142721
 C          -1.41476359       -1.29216199       -0.01037512
 C          -3.20227062        0.18692634       -0.14294107
 C          -2.82676379       -1.12241048       -0.04269998
 H          -3.53222051       -1.94186877       -0.00354930
 H           4.19429620       -0.57452886        0.18632814
 H           3.53860725        1.89960515       -0.43610218
 H          -4.19810857        0.59940439       -0.19645081
 H          -0.92678343       -2.25689449        0.04054957
$end

$rem
         jobtype = opt
        exchange = b3lyp
           basis = 6-31++g**
  max_scf_cycles = 75
      mem_static = 100
       mem_total = 1500
$end

$opt
CONSTRAINT
tors 4 5 7 9 170.0
ENDCONSTRAINT
$end

--------------------------------------------------------------

   30   -1104.8404424085      9.35E-09 Convergence criterion met
 Total energy in the final basis set = -1104.8404424085
   11   -1104.8405797261      2.05E-09 Convergence criterion met
 Total energy in the final basis set = -1104.8405797261
    9   -1104.8405840530      6.63E-09 Convergence criterion met
 Total energy in the final basis set = -1104.8405840530
    9   -1104.8405853356      5.25E-09 Convergence criterion met
 Total energy in the final basis set = -1104.8405853356

             Standard Nuclear Orientation (Angstroms)
    I     Atom           X                Y                Z
 ----------------------------------------------------------------
    1      S       1.8558337067    -1.2058767937     0.1039542114
    2      C       3.2116352299    -0.1260880806     0.0223141897
    3      C       2.8111585253     1.1782534502    -0.0972384405
    4      C       1.3938498002     1.3204871154    -0.1327054742
    5      C       0.7159161363     0.1218441824    -0.0392755266
    6      H       0.8906748982     2.2754935441    -0.2360937460
    7      C      -0.7159161363    -0.1218441824    -0.0392755266
    8      S      -1.8558337067     1.2058767937     0.1039542114
    9      C      -1.3938498002    -1.3204871154    -0.1327054742
   10      C      -3.2116352299     0.1260880806     0.0223141897
   11      C      -2.8111585253    -1.1782534502    -0.0972384405
   12      H      -3.5022980308    -2.0107780145    -0.1623465035
   13      H       4.2173213654    -0.5208537640     0.0681493098
   14      H       3.5022980308     2.0107780145    -0.1623465035
   15      H      -4.2173213654     0.5208537640     0.0681493098
   16      H      -0.8906748982    -2.2754935441    -0.2360937460
 ----------------------------------------------------------------

    8   -1104.8405854991      2.66E-09 Convergence criterion met
 Total energy in the final basis set = -1104.8405854991
 Final energy is   -1104.84058549910
 **  OPTIMIZATION CONVERGED  **

             Orbital Energies (a.u.) and Symmetries
 --------------------------------------------------------------

 Alpha MOs, Restricted
 -- Occupied --
-88.920 -88.920 -10.240 -10.239 -10.225 -10.225 -10.205 -10.205
  1 A     1 B     2 A     2 B     3 B     3 A     4 A     4 B
-10.204 -10.204  -7.979  -7.979  -5.943  -5.943  -5.940  -5.940
  5 B     5 A     6 A     6 B     7 A     7 B     8 B     8 A
 -5.936  -5.936  -0.901  -0.878  -0.772  -0.750  -0.737  -0.706
  9 B     9 A    10 A    10 B    11 A    11 B    12 A    12 B
 -0.604  -0.581  -0.551  -0.535  -0.527  -0.478  -0.420  -0.419
 13 A    13 B    14 A    14 B    15 A    15 B    16 B    16 A
 -0.408  -0.405  -0.402  -0.379  -0.374  -0.358  -0.343  -0.284
 17 A    17 B    18 A    19 A    18 B    19 B    20 A    21 A
 -0.265  -0.258  -0.212
 20 B    22 A    21 B

 Beta MOs, Restricted
 -- Occupied --
-88.920 -88.920 -10.240 -10.239 -10.225 -10.225 -10.205 -10.205
  1 A     1 B     2 A     2 B     3 B     3 A     4 A     4 B
-10.204 -10.204  -7.979  -7.979  -5.943  -5.943  -5.940  -5.940
  5 B     5 A     6 A     6 B     7 A     7 B     8 B     8 A
 -5.936  -5.936  -0.901  -0.878  -0.772  -0.750  -0.737  -0.706
  9 B     9 A    10 A    10 B    11 A    11 B    12 A    12 B
 -0.604  -0.581  -0.551  -0.535  -0.527  -0.478  -0.420  -0.419
 13 A    13 B    14 A    14 B    15 A    15 B    16 B    16 A
 -0.408  -0.405  -0.402  -0.379  -0.374  -0.358  -0.343  -0.284
 17 A    17 B    18 A    19 A    18 B    19 B    20 A    21 A
 -0.265  -0.258  -0.212
 20 B    22 A    21 B

          Ground-State Mulliken Net Atomic Charges

     Atom                 Charge (a.u.)
  ----------------------------------------
      1 S                    -0.136646
      2 C                     0.019512
      3 C                    -0.362146
      4 C                     0.418879
      5 C                    -0.378700
      6 H                     0.117900
      7 C                    -0.378700
      8 S                    -0.136646
      9 C                     0.418879
     10 C                     0.019512
     11 C                    -0.362146
     12 H                     0.121365
     13 H                     0.199836
     14 H                     0.121365
     15 H                     0.199836
     16 H                     0.117900
  ----------------------------------------
  Sum of atomic charges =    -0.000000

                    Cartesian Multipole Moments
 -----------------------------------------------------------------
    Charge (ESU x 10^10)
                -0.0000
    Dipole Moment (Debye)
         X       0.0000      Y      -0.0000      Z      -0.1102
       Tot       0.1102
    Quadrupole Moments (Debye-Ang)
        XX     -61.1634     XY       1.6418     YY     -68.0646
        XZ       0.0000     YZ       0.0000     ZZ     -78.8545

 Total job time:  38.53s(wall), 42.78s(cpu)
        *  Thank you very much for using Q-Chem.  Have a nice day.  *
