 Q-Chem 4.4, Q-Chem, Inc., Pleasanton, CA (2016)
 Q-Chem 4.4.1 for Intel X86 EM64T Linux

User input:
--------------------------------------------------------------
$comment
<SCF Fix Strategy>{
    "current_method_id": 0,
    "methods": [
        "increase_iter",
        "diis_gdm",
        "gwh",
        "rca",
        "gdm",
        "core+gdm",
        "fon"
    ],
    "version": 2.0
}</SCF Fix Strategy>
$end

$molecule
 0  1
 S           1.82267924       -1.19997629        0.28714109
 C           3.20006180       -0.17260711        0.06528466
 C           2.82980603        1.10216298       -0.25610036
 C           1.41909100        1.26345446       -0.34254814
 C           0.71738150        0.10901545       -0.08456145
 H           0.93627498        2.19419272       -0.61095402
 C          -0.71741859       -0.10899254       -0.08455524
 S          -1.51244623       -0.84204284       -1.46436441
 C          -1.63992902        0.18976982        0.89084121
 C          -3.05979990       -0.75074756       -0.69025055
 C          -2.97077314       -0.17460914        0.54488318
 H          -3.82371513       -0.02338894        1.19321662
 H           4.19429620       -0.57452886        0.18632814
 H           3.53860725        1.89960515       -0.43610218
 H          -3.93571742       -1.12752789       -1.19572035
 H          -1.36619180        0.63508358        1.83857026
$end

$rem
         jobtype = opt
        exchange = b3lyp
           basis = 6-31++g**
  max_scf_cycles = 200
      mem_static = 100
       mem_total = 1500
   scf_algorithm = diis
       scf_guess = sad
$end

$opt
CONSTRAINT
tors 4 5 7 9 -80.0
ENDCONSTRAINT
$end

--------------------------------------------------------------

   80   -1104.8370166051      7.15E-09 Convergence criterion met
 Total energy in the final basis set = -1104.8370166051
   10   -1104.8373951230      6.08E-09 Convergence criterion met
 Total energy in the final basis set = -1104.8373951230
   10   -1104.8374231766      7.93E-09 Convergence criterion met
 Total energy in the final basis set = -1104.8374231766
    9   -1104.8374306387      9.78E-09 Convergence criterion met
 Total energy in the final basis set = -1104.8374306387
    9   -1104.8374330424      7.19E-09 Convergence criterion met
 Total energy in the final basis set = -1104.8374330424
    9   -1104.8374344901      9.01E-09 Convergence criterion met
 Total energy in the final basis set = -1104.8374344901

             Standard Nuclear Orientation (Angstroms)
    I     Atom           X                Y                Z
 ----------------------------------------------------------------
    1      S       1.7216548956     0.8025437066     0.9038261844
    2      C       3.1765684302     0.1293229805     0.2479692156
    3      C       2.9171711612    -0.7101811680    -0.8038929227
    4      C       1.5229706886    -0.8223822508    -1.0874670022
    5      C       0.7308634684    -0.0602995603    -0.2599482224
    6      H       1.1080011469    -1.4459356720    -1.8712479949
    7      C      -0.7308634684     0.0602995603    -0.2599482224
    8      S      -1.7216548956    -0.8025437066     0.9038261844
    9      C      -1.5229706886     0.8223822508    -1.0874670022
   10      C      -3.1765684302    -0.1293229805     0.2479692156
   11      C      -2.9171711612     0.7101811680    -0.8038929227
   12      H      -3.6904001791     1.2347447782    -1.3536574126
   13      H       4.1359391726     0.3930175099     0.6724167940
   14      H       3.6904001791    -1.2347447782    -1.3536574126
   15      H      -4.1359391726    -0.3930175099     0.6724167940
   16      H      -1.1080011469     1.4459356720    -1.8712479949
 ----------------------------------------------------------------

    9   -1104.8374348944      4.44E-09 Convergence criterion met
 Total energy in the final basis set = -1104.8374348944
 Final energy is   -1104.83743489440
 **  OPTIMIZATION CONVERGED  **

             Orbital Energies (a.u.) and Symmetries
 --------------------------------------------------------------

 Alpha MOs, Restricted
 -- Occupied --
-88.919 -88.919 -10.236 -10.235 -10.225 -10.225 -10.204 -10.204
  1 B     1 A     2 A     2 B     3 B     3 A     4 A     4 B
-10.203 -10.203  -7.978  -7.978  -5.942  -5.942  -5.939  -5.939
  5 B     5 A     6 B     6 A     7 B     7 A     8 B     8 A
 -5.935  -5.935  -0.898  -0.877  -0.768  -0.743  -0.740  -0.705
  9 B     9 A    10 A    10 B    11 A    12 A    11 B    12 B
 -0.600  -0.567  -0.564  -0.534  -0.523  -0.478  -0.417  -0.414
 13 A    14 A    13 B    14 B    15 A    15 B    16 A    17 A
 -0.413  -0.405  -0.394  -0.375  -0.375  -0.351  -0.350  -0.264
 16 B    17 B    18 A    18 B    19 A    20 A    19 B    21 A
 -0.257  -0.250  -0.236
 20 B    21 B    22 A

 Beta MOs, Restricted
 -- Occupied --
-88.919 -88.919 -10.236 -10.235 -10.225 -10.225 -10.204 -10.204
  1 B     1 A     2 A     2 B     3 B     3 A     4 A     4 B
-10.203 -10.203  -7.978  -7.978  -5.942  -5.942  -5.939  -5.939
  5 B     5 A     6 B     6 A     7 B     7 A     8 B     8 A
 -5.935  -5.935  -0.898  -0.877  -0.768  -0.743  -0.740  -0.705
  9 B     9 A    10 A    10 B    11 A    12 A    11 B    12 B
 -0.600  -0.567  -0.564  -0.534  -0.523  -0.478  -0.417  -0.414
 13 A    14 A    13 B    14 B    15 A    15 B    16 A    17 A
 -0.413  -0.405  -0.394  -0.375  -0.375  -0.351  -0.350  -0.264
 16 B    17 B    18 A    18 B    19 A    20 A    19 B    21 A
 -0.257  -0.250  -0.236
 20 B    21 B    22 A

          Ground-State Mulliken Net Atomic Charges

     Atom                 Charge (a.u.)
  ----------------------------------------
      1 S                     0.045993
      2 C                    -0.035294
      3 C                    -0.404921
      4 C                     0.343540
      5 C                    -0.390277
      6 H                     0.134476
      7 C                    -0.390276
      8 S                     0.045993
      9 C                     0.343540
     10 C                    -0.035294
     11 C                    -0.404921
     12 H                     0.117948
     13 H                     0.188535
     14 H                     0.117948
     15 H                     0.188535
     16 H                     0.134476
  ----------------------------------------
  Sum of atomic charges =    -0.000000

                    Cartesian Multipole Moments
 -----------------------------------------------------------------
    Charge (ESU x 10^10)
                -0.0000
    Dipole Moment (Debye)
         X      -0.0000      Y       0.0000      Z      -0.7954
       Tot       0.7954
    Quadrupole Moments (Debye-Ang)
        XX     -61.0804     XY      -1.4235     YY     -74.3180
        XZ      -0.0000     YZ      -0.0000     ZZ     -72.1218

 Total job time:  68.81s(wall), 77.08s(cpu)
        *  Thank you very much for using Q-Chem.  Have a nice day.  *
