 Q-Chem 4.4, Q-Chem, Inc., Pleasanton, CA (2016)
 Q-Chem 4.4.1 for Intel X86 EM64T Linux

User input:
--------------------------------------------------------------
$comment
<SCF Fix Strategy>{
    "current_method_id": 0,
    "methods": [
        "increase_iter",
        "rca_diis",
        "gwh",
        "gdm",
        "rca",
        "core+rca",
        "fon"
    ],
    "version": 2.0
}</SCF Fix Strategy>
$end

$molecule
 0  1
 S           1.82267924       -1.19997629        0.28714109
 C           3.20006180       -0.17260711        0.06528466
 C           2.82980603        1.10216298       -0.25610036
 C           1.41909100        1.26345446       -0.34254814
 C           0.71738150        0.10901545       -0.08456145
 H           0.93627498        2.19419272       -0.61095402
 C          -0.71741859       -0.10899254       -0.08455524
 S          -1.40048314       -1.57889762       -0.75246761
 C          -1.71886300        0.70925229        0.38370446
 C          -3.01124421       -1.07030326       -0.36688881
 C          -3.02193504        0.16209914        0.22174231
 H          -3.92772319        0.66111216        0.53993673
 H           4.19429620       -0.57452886        0.18632814
 H           3.53860725        1.89960515       -0.43610218
 H          -3.84681981       -1.71258256       -0.59923631
 H          -1.52261201        1.66452110        0.85314435
$end

$rem
         jobtype = opt
        exchange = b3lyp
           basis = 6-31++g**
  max_scf_cycles = 200
      mem_static = 100
       mem_total = 1500
   scf_algorithm = diis
       scf_guess = sad
$end

$opt
CONSTRAINT
tors 4 5 7 9 -40.0
ENDCONSTRAINT
$end

--------------------------------------------------------------

   40   -1104.8393336022      6.71E-09 Convergence criterion met
 Total energy in the final basis set = -1104.8393336022
   11   -1104.8396253424      5.52E-09 Convergence criterion met
 Total energy in the final basis set = -1104.8396253424
   11   -1104.8396616640      5.30E-09 Convergence criterion met
 Total energy in the final basis set = -1104.8396616640
   10   -1104.8396669887      6.63E-09 Convergence criterion met
 Total energy in the final basis set = -1104.8396669887

             Standard Nuclear Orientation (Angstroms)
    I     Atom           X                Y                Z
 ----------------------------------------------------------------
    1      S       1.6806647006     0.4489356083     1.0997947887
    2      C       3.1644741864     0.0871979350     0.2785279445
    3      C       2.9397323020    -0.3632867181    -0.9959903748
    4      C       1.5531085489    -0.4383912712    -1.3192287365
    5      C       0.7275489408    -0.0302375166    -0.2929906297
    6      H       1.1691632948    -0.8042921619    -2.2645776005
    7      C      -0.7275489408     0.0302375166    -0.2929906297
    8      S      -1.6806647006    -0.4489356083     1.0997947887
    9      C      -1.5531085489     0.4383912712    -1.3192287365
   10      C      -3.1644741864    -0.0871979350     0.2785279445
   11      C      -2.9397323020     0.3632867181    -0.9959903748
   12      H      -3.7343553927     0.6478958960    -1.6763567071
   13      H       4.1098228872     0.2270651853     0.7847880894
   14      H       3.7343553927    -0.6478958960    -1.6763567071
   15      H      -4.1098228872    -0.2270651853     0.7847880894
   16      H      -1.1691632948     0.8042921619    -2.2645776005
 ----------------------------------------------------------------

    9   -1104.8396675952      3.16E-09 Convergence criterion met
 Total energy in the final basis set = -1104.8396675952
 Final energy is   -1104.83966759520
 **  OPTIMIZATION CONVERGED  **

             Orbital Energies (a.u.) and Symmetries
 --------------------------------------------------------------

 Alpha MOs, Restricted
 -- Occupied --
-88.920 -88.920 -10.238 -10.237 -10.225 -10.225 -10.204 -10.204
  1 B     1 A     2 A     2 B     3 B     3 A     4 B     4 A
-10.203 -10.203  -7.979  -7.979  -5.943  -5.943  -5.940  -5.940
  5 B     5 A     6 B     6 A     7 B     7 A     8 B     8 A
 -5.936  -5.936  -0.900  -0.878  -0.771  -0.747  -0.738  -0.705
  9 A     9 B    10 A    10 B    11 A    12 A    11 B    12 B
 -0.603  -0.576  -0.557  -0.534  -0.525  -0.477  -0.420  -0.417
 13 A    14 A    13 B    14 B    15 A    15 B    16 A    17 A
 -0.410  -0.403  -0.398  -0.376  -0.374  -0.356  -0.347  -0.273
 16 B    17 B    18 A    18 B    19 A    20 A    19 B    20 B
 -0.261  -0.261  -0.218
 21 B    21 A    22 A

 Beta MOs, Restricted
 -- Occupied --
-88.920 -88.920 -10.238 -10.237 -10.225 -10.225 -10.204 -10.204
  1 B     1 A     2 A     2 B     3 B     3 A     4 B     4 A
-10.203 -10.203  -7.979  -7.979  -5.943  -5.943  -5.940  -5.940
  5 B     5 A     6 B     6 A     7 B     7 A     8 B     8 A
 -5.936  -5.936  -0.900  -0.878  -0.771  -0.747  -0.738  -0.705
  9 A     9 B    10 A    10 B    11 A    12 A    11 B    12 B
 -0.603  -0.576  -0.557  -0.534  -0.525  -0.477  -0.420  -0.417
 13 A    14 A    13 B    14 B    15 A    15 B    16 A    17 A
 -0.410  -0.403  -0.398  -0.376  -0.374  -0.356  -0.347  -0.273
 16 B    17 B    18 A    18 B    19 A    20 A    19 B    20 B
 -0.261  -0.261  -0.218
 21 B    21 A    22 A

          Ground-State Mulliken Net Atomic Charges

     Atom                 Charge (a.u.)
  ----------------------------------------
      1 S                    -0.018893
      2 C                    -0.062351
      3 C                    -0.391751
      4 C                     0.264852
      5 C                    -0.236728
      6 H                     0.141322
      7 C                    -0.236728
      8 S                    -0.018893
      9 C                     0.264852
     10 C                    -0.062351
     11 C                    -0.391751
     12 H                     0.116427
     13 H                     0.187121
     14 H                     0.116427
     15 H                     0.187121
     16 H                     0.141322
  ----------------------------------------
  Sum of atomic charges =     0.000000

                    Cartesian Multipole Moments
 -----------------------------------------------------------------
    Charge (ESU x 10^10)
                 0.0000
    Dipole Moment (Debye)
         X       0.0000      Y       0.0000      Z      -0.9685
       Tot       0.9685
    Quadrupole Moments (Debye-Ang)
        XX     -60.9649     XY      -0.8362     YY     -77.5059
        XZ      -0.0000     YZ       0.0000     ZZ     -68.9818

 Total job time:  44.47s(wall), 49.79s(cpu)
        *  Thank you very much for using Q-Chem.  Have a nice day.  *
