 Q-Chem 4.4, Q-Chem, Inc., Pleasanton, CA (2016)
 Q-Chem 4.4.1 for Intel X86 EM64T Linux

User input:
--------------------------------------------------------------
$comment
<SCF Fix Strategy>{
    "current_method_id": 1,
    "methods": [
        "increase_iter",
        "rca_diis",
        "gwh",
        "gdm",
        "rca",
        "core+rca",
        "fon"
    ],
    "version": 2.0
}</SCF Fix Strategy>
$end

$molecule
 0  1
 S           1.82267924       -1.19997629        0.28714109
 C           3.20006180       -0.17260711        0.06528466
 C           2.82980603        1.10216298       -0.25610036
 C           1.41909100        1.26345446       -0.34254814
 C           0.71738150        0.10901545       -0.08456145
 H           0.93627498        2.19419272       -0.61095402
 C          -0.71741859       -0.10899254       -0.08455524
 S          -1.80625393        1.09168454        0.58336482
 C          -1.43062800       -1.18776723       -0.55280750
 C          -3.19325504        0.12760085        0.19779900
 C          -2.83740935       -1.05235764       -0.39083361
 H          -3.55409938       -1.79789505       -0.70902101
 H           4.19429620       -0.57452886        0.18632814
 H           3.53860725        1.89960515       -0.43610218
 H          -4.18189337        0.49270340        0.43015440
 H          -0.95949572       -2.04163174       -1.02225028
$end

$rem
         jobtype = opt
        exchange = b3lyp
           basis = 6-31++g**
  max_scf_cycles = 200
      mem_static = 100
       mem_total = 1500
   scf_algorithm = rca_diis
       scf_guess = sad
$end

$opt
CONSTRAINT
tors 4 5 7 9 140.0
ENDCONSTRAINT
$end

--------------------------------------------------------------

  148   -1104.8402698621      7.35E-09 Convergence criterion met
 Total energy in the final basis set = -1104.8402698621
   11   -1104.8404172500      3.05E-09 Convergence criterion met
 Total energy in the final basis set = -1104.8404172500
   10   -1104.8404329056      3.25E-09 Convergence criterion met
 Total energy in the final basis set = -1104.8404329056
   10   -1104.8404509402      8.16E-09 Convergence criterion met
 Total energy in the final basis set = -1104.8404509402
    9   -1104.8404520906      3.33E-09 Convergence criterion met
 Total energy in the final basis set = -1104.8404520906

             Standard Nuclear Orientation (Angstroms)
    I     Atom           X                Y                Z
 ----------------------------------------------------------------
    1      S       1.8303274768    -1.1560318862     0.3839213118
    2      C       3.2056369771    -0.1482232260     0.0666644425
    3      C       2.8300006546     1.0977228304    -0.3628536985
    4      C       1.4154343062     1.2473045388    -0.4570980642
    5      C       0.7185565138     0.1152492097    -0.0904314805
    6      H       0.9244070291     2.1485748688    -0.8066750548
    7      C      -0.7185565138    -0.1152492097    -0.0904314805
    8      S      -1.8303274768     1.1560318862     0.3839213118
    9      C      -1.4154343062    -1.2473045388    -0.4570980642
   10      C      -3.2056369771     0.1482232260     0.0666644425
   11      C      -2.8300006546    -1.0977228304    -0.3628536985
   12      H      -3.5375246054    -1.8789343808    -0.6164745501
   13      H       4.2048234255    -0.5333728020     0.2177768621
   14      H       3.5375246054     1.8789343808    -0.6164745501
   15      H      -4.2048234255     0.5333728020     0.2177768621
   16      H      -0.9244070291    -2.1485748688    -0.8066750548
 ----------------------------------------------------------------

    8   -1104.8404524674      4.08E-09 Convergence criterion met
 Total energy in the final basis set = -1104.8404524674
 Final energy is   -1104.84045246741
 **  OPTIMIZATION CONVERGED  **

             Orbital Energies (a.u.) and Symmetries
 --------------------------------------------------------------

 Alpha MOs, Restricted
 -- Occupied --
-88.920 -88.920 -10.238 -10.238 -10.225 -10.225 -10.204 -10.204
  1 B     1 A     2 A     2 B     3 B     3 A     4 A     4 B
-10.203 -10.203  -7.979  -7.979  -5.943  -5.943  -5.940  -5.940
  5 B     5 A     6 B     6 A     7 A     7 B     8 B     8 A
 -5.936  -5.936  -0.900  -0.878  -0.771  -0.748  -0.738  -0.705
  9 B     9 A    10 A    10 B    11 A    11 B    12 A    12 B
 -0.603  -0.578  -0.554  -0.534  -0.525  -0.478  -0.419  -0.418
 13 A    13 B    14 A    14 B    15 A    15 B    16 B    16 A
 -0.408  -0.405  -0.399  -0.377  -0.374  -0.356  -0.346  -0.274
 17 A    17 B    18 A    19 A    18 B    19 B    20 A    21 A
 -0.262  -0.261  -0.218
 20 B    22 A    21 B

 Beta MOs, Restricted
 -- Occupied --
-88.920 -88.920 -10.238 -10.238 -10.225 -10.225 -10.204 -10.204
  1 B     1 A     2 A     2 B     3 B     3 A     4 A     4 B
-10.203 -10.203  -7.979  -7.979  -5.943  -5.943  -5.940  -5.940
  5 B     5 A     6 B     6 A     7 A     7 B     8 B     8 A
 -5.936  -5.936  -0.900  -0.878  -0.771  -0.748  -0.738  -0.705
  9 B     9 A    10 A    10 B    11 A    11 B    12 A    12 B
 -0.603  -0.578  -0.554  -0.534  -0.525  -0.478  -0.419  -0.418
 13 A    13 B    14 A    14 B    15 A    15 B    16 B    16 A
 -0.408  -0.405  -0.399  -0.377  -0.374  -0.356  -0.346  -0.274
 17 A    17 B    18 A    19 A    18 B    19 B    20 A    21 A
 -0.262  -0.261  -0.218
 20 B    22 A    21 B

          Ground-State Mulliken Net Atomic Charges

     Atom                 Charge (a.u.)
  ----------------------------------------
      1 S                    -0.021086
      2 C                    -0.034739
      3 C                    -0.408542
      4 C                     0.274357
      5 C                    -0.245466
      6 H                     0.132886
      7 C                    -0.245466
      8 S                    -0.021086
      9 C                     0.274357
     10 C                    -0.034739
     11 C                    -0.408542
     12 H                     0.114878
     13 H                     0.187712
     14 H                     0.114878
     15 H                     0.187712
     16 H                     0.132886
  ----------------------------------------
  Sum of atomic charges =    -0.000000

                    Cartesian Multipole Moments
 -----------------------------------------------------------------
    Charge (ESU x 10^10)
                -0.0000
    Dipole Moment (Debye)
         X       0.0000      Y      -0.0000      Z      -0.4338
       Tot       0.4338
    Quadrupole Moments (Debye-Ang)
        XX     -61.1559     XY       1.4071     YY     -69.1799
        XZ       0.0000     YZ      -0.0000     ZZ     -77.6266

 Total job time:  111.90s(wall), 126.34s(cpu)
        *  Thank you very much for using Q-Chem.  Have a nice day.  *
