 Q-Chem 4.4, Q-Chem, Inc., Pleasanton, CA (2016)
 Q-Chem 4.4.1 for Intel X86 EM64T Linux

User input:
--------------------------------------------------------------
$comment
<SCF Fix Strategy>{
    "current_method_id": 0,
    "methods": [
        "increase_iter",
        "rca_diis",
        "gwh",
        "gdm",
        "rca",
        "core+rca",
        "fon"
    ],
    "version": 2.0
}</SCF Fix Strategy>
$end

$molecule
 0  1
 S           1.82267924       -1.19997629        0.28714109
 C           3.20006180       -0.17260711        0.06528466
 C           2.82980603        1.10216298       -0.25610036
 C           1.41909100        1.26345446       -0.34254814
 C           0.71738150        0.10901545       -0.08456145
 H           0.93627498        2.19419272       -0.61095402
 C          -0.71741859       -0.10899254       -0.08455524
 S          -1.70370794        0.41672980       -1.43516783
 C          -1.50440050       -0.70219941        0.87484444
 C          -3.14466561       -0.19221151       -0.69037124
 C          -2.88365933       -0.74794129        0.52965200
 H          -3.64709744       -1.18578339        1.15907267
 H           4.19429620       -0.57452886        0.18632814
 H           3.53860725        1.89960515       -0.43610218
 H          -4.09167832       -0.10108532       -1.19983917
 H          -1.10018600       -1.11561114        1.78979151
$end

$rem
         jobtype = opt
        exchange = b3lyp
           basis = 6-31++g**
  max_scf_cycles = 200
      mem_static = 100
       mem_total = 1500
   scf_algorithm = diis
       scf_guess = sad
$end

$opt
CONSTRAINT
tors 4 5 7 9 -130.0
ENDCONSTRAINT
$end

--------------------------------------------------------------

  156   -1104.8393463047      6.55E-09 Convergence criterion met
 Total energy in the final basis set = -1104.8393463047
   11   -1104.8397655222      6.35E-09 Convergence criterion met
 Total energy in the final basis set = -1104.8397655222
   10   -1104.8398295180      4.48E-09 Convergence criterion met
 Total energy in the final basis set = -1104.8398295180
   10   -1104.8398577560      9.48E-09 Convergence criterion met
 Total energy in the final basis set = -1104.8398577560
   10   -1104.8398643013      3.29E-09 Convergence criterion met
 Total energy in the final basis set = -1104.8398643013
   10   -1104.8398685252      4.63E-09 Convergence criterion met
 Total energy in the final basis set = -1104.8398685252

             Standard Nuclear Orientation (Angstroms)
    I     Atom           X                Y                Z
 ----------------------------------------------------------------
    1      S       1.8217719307    -1.1261068647    -0.4805684148
    2      C       3.2043023212    -0.1544208607    -0.0929022244
    3      C       2.8384834624     1.0569942000     0.4333830306
    4      C       1.4249051664     1.2075744151     0.5442254862
    5      C       0.7201220722     0.1132069299     0.0911430910
    6      H       0.9389223649     2.0814271193     0.9634597640
    7      C      -0.7201220722    -0.1132069299     0.0911430910
    8      S      -1.8217719307     1.1261068647    -0.4805684148
    9      C      -1.4249051664    -1.2075744151     0.5442254862
   10      C      -3.2043023212     0.1544208607    -0.0929022244
   11      C      -2.8384834624    -1.0569942000     0.4333830306
   12      H      -3.5520603127    -1.8121653297     0.7429613477
   13      H       4.2008271930    -0.5317853715    -0.2777613740
   14      H       3.5520603127     1.8121653297     0.7429613477
   15      H      -4.2008271930     0.5317853715    -0.2777613740
   16      H      -0.9389223649    -2.0814271193     0.9634597640
 ----------------------------------------------------------------

    8   -1104.8398691652      9.73E-09 Convergence criterion met
 Total energy in the final basis set = -1104.8398691652
 Final energy is   -1104.83986916523
 **  OPTIMIZATION CONVERGED  **

             Orbital Energies (a.u.) and Symmetries
 --------------------------------------------------------------

 Alpha MOs, Restricted
 -- Occupied --
-88.920 -88.920 -10.238 -10.237 -10.224 -10.224 -10.204 -10.204
  1 B     1 A     2 A     2 B     3 B     3 A     4 A     4 B
-10.203 -10.203  -7.979  -7.979  -5.943  -5.943  -5.940  -5.940
  5 B     5 A     6 B     6 A     7 B     7 A     8 B     8 A
 -5.936  -5.936  -0.899  -0.878  -0.770  -0.747  -0.738  -0.705
  9 B     9 A    10 A    10 B    11 A    11 B    12 A    12 B
 -0.602  -0.576  -0.556  -0.534  -0.525  -0.478  -0.418  -0.418
 13 A    13 B    14 A    14 B    15 A    15 B    16 B    16 A
 -0.409  -0.405  -0.397  -0.377  -0.374  -0.355  -0.347  -0.270
 17 A    17 B    18 A    19 A    18 B    19 B    20 A    21 A
 -0.262  -0.260  -0.221
 22 A    20 B    21 B

 Beta MOs, Restricted
 -- Occupied --
-88.920 -88.920 -10.238 -10.237 -10.224 -10.224 -10.204 -10.204
  1 B     1 A     2 A     2 B     3 B     3 A     4 A     4 B
-10.203 -10.203  -7.979  -7.979  -5.943  -5.943  -5.940  -5.940
  5 B     5 A     6 B     6 A     7 B     7 A     8 B     8 A
 -5.936  -5.936  -0.899  -0.878  -0.770  -0.747  -0.738  -0.705
  9 B     9 A    10 A    10 B    11 A    11 B    12 A    12 B
 -0.602  -0.576  -0.556  -0.534  -0.525  -0.478  -0.418  -0.418
 13 A    13 B    14 A    14 B    15 A    15 B    16 B    16 A
 -0.409  -0.405  -0.397  -0.377  -0.374  -0.355  -0.347  -0.270
 17 A    17 B    18 A    19 A    18 B    19 B    20 A    21 A
 -0.262  -0.260  -0.221
 22 A    20 B    21 B

          Ground-State Mulliken Net Atomic Charges

     Atom                 Charge (a.u.)
  ----------------------------------------
      1 S                     0.014151
      2 C                    -0.035153
      3 C                    -0.407398
      4 C                     0.246358
      5 C                    -0.257198
      6 H                     0.136046
      7 C                    -0.257198
      8 S                     0.014151
      9 C                     0.246358
     10 C                    -0.035153
     11 C                    -0.407398
     12 H                     0.115413
     13 H                     0.187780
     14 H                     0.115413
     15 H                     0.187780
     16 H                     0.136046
  ----------------------------------------
  Sum of atomic charges =     0.000000

                    Cartesian Multipole Moments
 -----------------------------------------------------------------
    Charge (ESU x 10^10)
                 0.0000
    Dipole Moment (Debye)
         X       0.0000      Y      -0.0000      Z       0.5216
       Tot       0.5216
    Quadrupole Moments (Debye-Ang)
        XX     -61.1703     XY       1.3321     YY     -69.7581
        XZ      -0.0000     YZ      -0.0000     ZZ     -77.0069

 Total job time:  101.35s(wall), 115.23s(cpu)
        *  Thank you very much for using Q-Chem.  Have a nice day.  *
