 Q-Chem 4.4, Q-Chem, Inc., Pleasanton, CA (2016)
 Q-Chem 4.4.1 for Intel X86 EM64T Linux

User input:
--------------------------------------------------------------
$comment
<SCF Fix Strategy>{
    "current_method_id": 0,
    "methods": [
        "increase_iter",
        "rca_diis",
        "gwh",
        "gdm",
        "rca",
        "core+rca",
        "fon"
    ],
    "version": 2.0
}</SCF Fix Strategy>
$end

$molecule
 0  1
 S           1.82267924       -1.19997629        0.28714109
 C           3.20006180       -0.17260711        0.06528466
 C           2.82980603        1.10216298       -0.25610036
 C           1.41909100        1.26345446       -0.34254814
 C           0.71738150        0.10901545       -0.08456145
 H           0.93627498        2.19419272       -0.61095402
 C          -0.71741859       -0.10899254       -0.08455524
 S          -1.46932282       -1.12578174        1.12956371
 C          -1.66904754        0.38135834       -0.94806031
 C          -3.04467512       -0.85025707        0.46304906
 C          -2.99100730       -0.04147350       -0.63622591
 H          -3.86573943        0.25312199       -1.20082403
 H           4.19429620       -0.57452886        0.18632814
 H           3.53860725        1.89960515       -0.43610218
 H          -3.90911709       -1.30253514        0.92443747
 H          -1.42867370        1.04619979       -1.76759251
$end

$rem
         jobtype = opt
        exchange = b3lyp
           basis = 6-31++g**
  max_scf_cycles = 200
      mem_static = 100
       mem_total = 1500
   scf_algorithm = diis
       scf_guess = sad
$end

$opt
CONSTRAINT
tors 4 5 7 9 40.0
ENDCONSTRAINT
$end

--------------------------------------------------------------

   82   -1104.8390119399      8.14E-09 Convergence criterion met
 Total energy in the final basis set = -1104.8390119399
   11   -1104.8395357778      5.62E-09 Convergence criterion met
 Total energy in the final basis set = -1104.8395357778
   11   -1104.8396343489      4.57E-09 Convergence criterion met
 Total energy in the final basis set = -1104.8396343489
   11   -1104.8396596047      3.45E-09 Convergence criterion met
 Total energy in the final basis set = -1104.8396596047
    9   -1104.8396630553      7.44E-09 Convergence criterion met
 Total energy in the final basis set = -1104.8396630553
    9   -1104.8396645403      6.63E-09 Convergence criterion met
 Total energy in the final basis set = -1104.8396645403

             Standard Nuclear Orientation (Angstroms)
    I     Atom           X                Y                Z
 ----------------------------------------------------------------
    1      S       1.6781185181    -0.4571425982     1.0936720839
    2      C       3.1639132680    -0.1018512442     0.2731403728
    3      C       2.9415578043     0.3502010846    -1.0012749734
    4      C       1.5554424737     0.4316136917    -1.3250222593
    5      C       0.7276895530     0.0271058592    -0.2990704595
    6      H       1.1734765879     0.8009228866    -2.2698433789
    7      C      -0.7276895530    -0.0271058592    -0.2990704595
    8      S      -1.6781185181     0.4571425982     1.0936720839
    9      C      -1.5554424737    -0.4316136917    -1.3250222593
   10      C      -3.1639132680     0.1018512442     0.2731403728
   11      C      -2.9415578043    -0.3502010846    -1.0012749734
   12      H      -3.7377418174    -0.6308908972    -1.6814636630
   13      H       4.1083783068    -0.2467794830     0.7796151252
   14      H       3.7377418174     0.6308908972    -1.6814636630
   15      H      -4.1083783068     0.2467794830     0.7796151252
   16      H      -1.1734765879    -0.8009228866    -2.2698433789
 ----------------------------------------------------------------

    9   -1104.8396647483      2.26E-09 Convergence criterion met
 Total energy in the final basis set = -1104.8396647483
 Final energy is   -1104.83966474835
 **  OPTIMIZATION CONVERGED  **

             Orbital Energies (a.u.) and Symmetries
 --------------------------------------------------------------

 Alpha MOs, Restricted
 -- Occupied --
-88.920 -88.920 -10.238 -10.237 -10.225 -10.225 -10.204 -10.204
  1 B     1 A     2 A     2 B     3 B     3 A     4 B     4 A
-10.203 -10.203  -7.979  -7.979  -5.943  -5.943  -5.940  -5.940
  5 B     5 A     6 B     6 A     7 B     7 A     8 B     8 A
 -5.936  -5.936  -0.900  -0.878  -0.771  -0.747  -0.738  -0.705
  9 A     9 B    10 A    10 B    11 A    12 A    11 B    12 B
 -0.603  -0.576  -0.557  -0.534  -0.525  -0.477  -0.420  -0.417
 13 A    14 A    13 B    14 B    15 A    15 B    16 A    17 A
 -0.410  -0.403  -0.398  -0.376  -0.374  -0.356  -0.347  -0.273
 16 B    17 B    18 A    18 B    19 A    20 A    19 B    20 B
 -0.261  -0.261  -0.218
 21 B    21 A    22 A

 Beta MOs, Restricted
 -- Occupied --
-88.920 -88.920 -10.238 -10.237 -10.225 -10.225 -10.204 -10.204
  1 B     1 A     2 A     2 B     3 B     3 A     4 B     4 A
-10.203 -10.203  -7.979  -7.979  -5.943  -5.943  -5.940  -5.940
  5 B     5 A     6 B     6 A     7 B     7 A     8 B     8 A
 -5.936  -5.936  -0.900  -0.878  -0.771  -0.747  -0.738  -0.705
  9 A     9 B    10 A    10 B    11 A    12 A    11 B    12 B
 -0.603  -0.576  -0.557  -0.534  -0.525  -0.477  -0.420  -0.417
 13 A    14 A    13 B    14 B    15 A    15 B    16 A    17 A
 -0.410  -0.403  -0.398  -0.376  -0.374  -0.356  -0.347  -0.273
 16 B    17 B    18 A    18 B    19 A    20 A    19 B    20 B
 -0.261  -0.261  -0.218
 21 B    21 A    22 A

          Ground-State Mulliken Net Atomic Charges

     Atom                 Charge (a.u.)
  ----------------------------------------
      1 S                    -0.019206
      2 C                    -0.062096
      3 C                    -0.391758
      4 C                     0.265307
      5 C                    -0.237188
      6 H                     0.141368
      7 C                    -0.237189
      8 S                    -0.019206
      9 C                     0.265307
     10 C                    -0.062096
     11 C                    -0.391758
     12 H                     0.116433
     13 H                     0.187140
     14 H                     0.116433
     15 H                     0.187140
     16 H                     0.141368
  ----------------------------------------
  Sum of atomic charges =    -0.000000

                    Cartesian Multipole Moments
 -----------------------------------------------------------------
    Charge (ESU x 10^10)
                -0.0000
    Dipole Moment (Debye)
         X       0.0000      Y      -0.0000      Z      -0.9676
       Tot       0.9676
    Quadrupole Moments (Debye-Ang)
        XX     -60.9576     XY       0.7553     YY     -77.5069
        XZ       0.0000     YZ       0.0000     ZZ     -68.9761

 Total job time:  73.04s(wall), 82.66s(cpu)
        *  Thank you very much for using Q-Chem.  Have a nice day.  *
