 Q-Chem 4.4, Q-Chem, Inc., Pleasanton, CA (2016)
 Q-Chem 4.4.1 for Intel X86 EM64T Linux

User input:
--------------------------------------------------------------
$comment
<SCF Fix Strategy>{
    "current_method_id": 0,
    "methods": [
        "increase_iter",
        "rca_diis",
        "gwh",
        "gdm",
        "rca",
        "core+rca",
        "fon"
    ],
    "version": 2.0
}</SCF Fix Strategy>
$end

$molecule
 0  1
 S           1.82267924       -1.19997629        0.28714109
 C           3.20006180       -0.17260711        0.06528466
 C           2.82980603        1.10216298       -0.25610036
 C           1.41909100        1.26345446       -0.34254814
 C           0.71738150        0.10901545       -0.08456145
 H           0.93627498        2.19419272       -0.61095402
 C          -0.71741859       -0.10899254       -0.08455524
 S          -1.54982076       -0.59606812       -1.54851188
 C          -1.61349505        0.01579875        0.95137757
 C          -3.07624500       -0.64251675       -0.73012197
 C          -2.95372971       -0.28677784        0.58283515
 H          -3.78912609       -0.25103143        1.26952936
 H           4.19429620       -0.57452886        0.18632814
 H           3.53860725        1.89960515       -0.43610218
 H          -3.96589791       -0.92889985       -1.26974875
 H          -1.31412490        0.29241328        1.95401842
$end

$rem
         jobtype = opt
        exchange = b3lyp
           basis = 6-31++g**
  max_scf_cycles = 200
      mem_static = 100
       mem_total = 1500
   scf_algorithm = diis
       scf_guess = sad
$end

$opt
CONSTRAINT
tors 4 5 7 9 -90.0
ENDCONSTRAINT
$end

--------------------------------------------------------------

   84   -1104.8368169199      4.84E-09 Convergence criterion met
 Total energy in the final basis set = -1104.8368169199
   10   -1104.8372131312      9.79E-09 Convergence criterion met
 Total energy in the final basis set = -1104.8372131312
   10   -1104.8372382251      7.20E-09 Convergence criterion met
 Total energy in the final basis set = -1104.8372382251
    9   -1104.8372428335      6.46E-09 Convergence criterion met
 Total energy in the final basis set = -1104.8372428335

             Standard Nuclear Orientation (Angstroms)
    I     Atom           X                Y                Z
 ----------------------------------------------------------------
    1      S       1.7441815250    -0.8904994171    -0.8269962395
    2      C       3.1840241712    -0.1430184863    -0.2212784074
    3      C       2.9032281086     0.7946843524     0.7381616749
    4      C       1.5044561682     0.9188767484     0.9934560235
    5      C       0.7300928113     0.0745712389     0.2322039354
    6      H       1.0743592870     1.6062220822     1.7132029234
    7      C      -0.7300928113    -0.0745712389     0.2322039354
    8      S      -1.7441815250     0.8904994171    -0.8269962395
    9      C      -1.5044561682    -0.9188767484     0.9934560235
   10      C      -3.1840241712     0.1430184863    -0.2212784074
   11      C      -2.9032281086    -0.7946843524     0.7381616749
   12      H      -3.6645157905    -1.3758233522     1.2460472762
   13      H       4.1518223704    -0.4388922781    -0.6034326684
   14      H       3.6645157905     1.3758233522     1.2460472762
   15      H      -4.1518223704     0.4388922781    -0.6034326684
   16      H      -1.0743592870    -1.6062220822     1.7132029234
 ----------------------------------------------------------------

    8   -1104.8372433836      8.23E-09 Convergence criterion met
 Total energy in the final basis set = -1104.8372433836
 Final energy is   -1104.83724338364
 **  OPTIMIZATION CONVERGED  **

             Orbital Energies (a.u.) and Symmetries
 --------------------------------------------------------------

 Alpha MOs, Restricted
 -- Occupied --
-88.919 -88.919 -10.235 -10.235 -10.224 -10.224 -10.204 -10.204
  1 B     1 A     2 A     2 B     3 B     3 A     4 A     4 B
-10.203 -10.203  -7.978  -7.978  -5.942  -5.942  -5.939  -5.939
  5 B     5 A     6 B     6 A     7 B     7 A     8 B     8 A
 -5.935  -5.935  -0.898  -0.877  -0.768  -0.741  -0.741  -0.705
  9 B     9 A    10 A    10 B    11 A    11 B    12 A    12 B
 -0.600  -0.567  -0.565  -0.534  -0.523  -0.478  -0.417  -0.414
 13 A    13 B    14 A    14 B    15 A    15 B    16 A    16 B
 -0.413  -0.405  -0.393  -0.375  -0.375  -0.351  -0.350  -0.264
 17 A    17 B    18 A    19 A    18 B    19 B    20 A    21 A
 -0.257  -0.243  -0.243
 20 B    22 A    21 B

 Beta MOs, Restricted
 -- Occupied --
-88.919 -88.919 -10.235 -10.235 -10.224 -10.224 -10.204 -10.204
  1 B     1 A     2 A     2 B     3 B     3 A     4 A     4 B
-10.203 -10.203  -7.978  -7.978  -5.942  -5.942  -5.939  -5.939
  5 B     5 A     6 B     6 A     7 B     7 A     8 B     8 A
 -5.935  -5.935  -0.898  -0.877  -0.768  -0.741  -0.741  -0.705
  9 B     9 A    10 A    10 B    11 A    11 B    12 A    12 B
 -0.600  -0.567  -0.565  -0.534  -0.523  -0.478  -0.417  -0.414
 13 A    13 B    14 A    14 B    15 A    15 B    16 A    16 B
 -0.413  -0.405  -0.393  -0.375  -0.375  -0.351  -0.350  -0.264
 17 A    17 B    18 A    19 A    18 B    19 B    20 A    21 A
 -0.257  -0.243  -0.243
 20 B    22 A    21 B

          Ground-State Mulliken Net Atomic Charges

     Atom                 Charge (a.u.)
  ----------------------------------------
      1 S                     0.057586
      2 C                    -0.042795
      3 C                    -0.380251
      4 C                     0.318621
      5 C                    -0.391518
      6 H                     0.131946
      7 C                    -0.391518
      8 S                     0.057586
      9 C                     0.318621
     10 C                    -0.042795
     11 C                    -0.380251
     12 H                     0.118805
     13 H                     0.187606
     14 H                     0.118805
     15 H                     0.187606
     16 H                     0.131946
  ----------------------------------------
  Sum of atomic charges =    -0.000000

                    Cartesian Multipole Moments
 -----------------------------------------------------------------
    Charge (ESU x 10^10)
                -0.0000
    Dipole Moment (Debye)
         X      -0.0000      Y       0.0000      Z       0.7516
       Tot       0.7516
    Quadrupole Moments (Debye-Ang)
        XX     -61.1058     XY       1.4355     YY     -73.3086
        XZ      -0.0000     YZ      -0.0000     ZZ     -73.1674

 Total job time:  59.36s(wall), 67.44s(cpu)
        *  Thank you very much for using Q-Chem.  Have a nice day.  *
