 Q-Chem 4.4, Q-Chem, Inc., Pleasanton, CA (2016)
 Q-Chem 4.4.1 for Intel X86 EM64T Linux

User input:
--------------------------------------------------------------
$comment
<SCF Fix Strategy>{
    "current_method_id": 1,
    "methods": [
        "increase_iter",
        "rca_diis",
        "gwh",
        "gdm",
        "rca",
        "core+rca",
        "fon"
    ],
    "version": 2.0
}</SCF Fix Strategy>
$end

$molecule
 0  1
 S           1.82267924       -1.19997629        0.28714109
 C           3.20006180       -0.17260711        0.06528466
 C           2.82980603        1.10216298       -0.25610036
 C           1.41909100        1.26345446       -0.34254814
 C           0.71738150        0.10901545       -0.08456145
 H           0.93627498        2.19419272       -0.61095402
 C          -0.71741859       -0.10899254       -0.08455524
 S          -1.82833654        1.23700497        0.08114651
 C          -1.41525994       -1.28890056       -0.19643547
 C          -3.20227387        0.18695102       -0.02643323
 C          -2.82723615       -1.11930511       -0.16229422
 H          -3.53327929       -1.93490739       -0.24601901
 H           4.19429620       -0.57452886        0.18632814
 H           3.53860725        1.89960515       -0.43610218
 H          -4.19823526        0.60024430        0.01766002
 H          -0.92829611       -2.24694932       -0.32463665
$end

$rem
         jobtype = opt
        exchange = b3lyp
           basis = 6-31++g**
  max_scf_cycles = 200
      mem_static = 100
       mem_total = 1500
   scf_algorithm = rca_diis
       scf_guess = sad
$end

$opt
CONSTRAINT
tors 4 5 7 9 160.0
ENDCONSTRAINT
$end

--------------------------------------------------------------

   20   -1104.8405910155      2.31E-09 Convergence criterion met
 Total energy in the final basis set = -1104.8405910155
   11   -1104.8407101424      1.88E-09 Convergence criterion met
 Total energy in the final basis set = -1104.8407101424
    9   -1104.8407116500      3.80E-09 Convergence criterion met
 Total energy in the final basis set = -1104.8407116500

             Standard Nuclear Orientation (Angstroms)
    I     Atom           X                Y                Z
 ----------------------------------------------------------------
    1      S       1.8482904395    -1.1937679491     0.2075395962
    2      C       3.2093414635    -0.1299257955     0.0459703451
    3      C       2.8154850872     1.1613795119    -0.1864344877
    4      C       1.3990862371     1.3046653477    -0.2500067468
    5      C       0.7164175137     0.1199564028    -0.0638569704
    6      H       0.8989756722     2.2463585618    -0.4474711849
    7      C      -0.7164175137    -0.1199564028    -0.0638569704
    8      S      -1.8482904395     1.1937679491     0.2075395962
    9      C      -1.3990862371    -1.3046653477    -0.2500067468
   10      C      -3.2093414635     0.1299257955     0.0459703451
   11      C      -2.8154850872    -1.1613795119    -0.1864344877
   12      H      -3.5108918173    -1.9826271939    -0.3166745352
   13      H       4.2132716806    -0.5223186608     0.1326881211
   14      H       3.5108918173     1.9826271939    -0.3166745352
   15      H      -4.2132716806     0.5223186608     0.1326881211
   16      H      -0.8989756722    -2.2463585618    -0.4474711849
 ----------------------------------------------------------------

    8   -1104.8407118622      8.30E-09 Convergence criterion met
 Total energy in the final basis set = -1104.8407118622
 Final energy is   -1104.84071186222
 **  OPTIMIZATION CONVERGED  **

             Orbital Energies (a.u.) and Symmetries
 --------------------------------------------------------------

 Alpha MOs, Restricted
 -- Occupied --
-88.920 -88.920 -10.239 -10.239 -10.225 -10.225 -10.205 -10.205
  1 A     1 B     2 A     2 B     3 B     3 A     4 A     4 B
-10.203 -10.203  -7.979  -7.979  -5.943  -5.943  -5.940  -5.940
  5 B     5 A     6 A     6 B     7 A     7 B     8 B     8 A
 -5.936  -5.936  -0.900  -0.878  -0.772  -0.749  -0.737  -0.706
  9 B     9 A    10 A    10 B    11 A    11 B    12 A    12 B
 -0.604  -0.581  -0.552  -0.534  -0.527  -0.478  -0.420  -0.418
 13 A    13 B    14 A    14 B    15 A    15 B    16 B    16 A
 -0.408  -0.405  -0.401  -0.378  -0.374  -0.357  -0.344  -0.281
 17 A    17 B    18 A    19 A    18 B    19 B    20 A    21 A
 -0.264  -0.259  -0.213
 20 B    22 A    21 B

 Beta MOs, Restricted
 -- Occupied --
-88.920 -88.920 -10.239 -10.239 -10.225 -10.225 -10.205 -10.205
  1 A     1 B     2 A     2 B     3 B     3 A     4 A     4 B
-10.203 -10.203  -7.979  -7.979  -5.943  -5.943  -5.940  -5.940
  5 B     5 A     6 A     6 B     7 A     7 B     8 B     8 A
 -5.936  -5.936  -0.900  -0.878  -0.772  -0.749  -0.737  -0.706
  9 B     9 A    10 A    10 B    11 A    11 B    12 A    12 B
 -0.604  -0.581  -0.552  -0.534  -0.527  -0.478  -0.420  -0.418
 13 A    13 B    14 A    14 B    15 A    15 B    16 B    16 A
 -0.408  -0.405  -0.401  -0.378  -0.374  -0.357  -0.344  -0.281
 17 A    17 B    18 A    19 A    18 B    19 B    20 A    21 A
 -0.264  -0.259  -0.213
 20 B    22 A    21 B

          Ground-State Mulliken Net Atomic Charges

     Atom                 Charge (a.u.)
  ----------------------------------------
      1 S                    -0.104211
      2 C                     0.015616
      3 C                    -0.353798
      4 C                     0.368402
      5 C                    -0.365408
      6 H                     0.122934
      7 C                    -0.365408
      8 S                    -0.104211
      9 C                     0.368402
     10 C                     0.015616
     11 C                    -0.353798
     12 H                     0.119888
     13 H                     0.196576
     14 H                     0.119888
     15 H                     0.196576
     16 H                     0.122934
  ----------------------------------------
  Sum of atomic charges =    -0.000000

                    Cartesian Multipole Moments
 -----------------------------------------------------------------
    Charge (ESU x 10^10)
                -0.0000
    Dipole Moment (Debye)
         X      -0.0000      Y       0.0000      Z      -0.2236
       Tot       0.2236
    Quadrupole Moments (Debye-Ang)
        XX     -61.1432     XY       1.5971     YY     -68.3228
        XZ       0.0000     YZ      -0.0000     ZZ     -78.5684

 Total job time:  32.03s(wall), 35.40s(cpu)
        *  Thank you very much for using Q-Chem.  Have a nice day.  *
