 Q-Chem 4.4, Q-Chem, Inc., Pleasanton, CA (2016)
 Q-Chem 4.4.1 for Intel X86 EM64T Linux

User input:
--------------------------------------------------------------
$comment
<SCF Fix Strategy>{
    "current_method_id": 2,
    "methods": [
        "increase_iter",
        "diis_gdm",
        "gwh",
        "rca",
        "gdm",
        "core+gdm",
        "fon"
    ],
    "version": 2.0
}</SCF Fix Strategy>
$end

$molecule
 0  1
 S           1.82267924       -1.19997629        0.28714109
 C           3.20006180       -0.17260711        0.06528466
 C           2.82980603        1.10216298       -0.25610036
 C           1.41909100        1.26345446       -0.34254814
 C           0.71738150        0.10901545       -0.08456145
 H           0.93627498        2.19419272       -0.61095402
 C          -0.71741859       -0.10899254       -0.08455524
 S          -1.76704763        0.83360309       -1.12527490
 C          -1.45935174       -0.99869004        0.65683281
 C          -3.17323329       -0.00419203       -0.55726814
 C          -2.85487849       -0.93736383        0.38785470
 H          -3.58886167       -1.56906510        0.87048917
 H           4.19429620       -0.57452886        0.18632814
 H           3.53860725        1.89960515       -0.43610218
 H          -4.14431621        0.24535313       -0.95654228
 H          -1.01238281       -1.69349230        1.35604333
$end

$rem
         jobtype = opt
        exchange = b3lyp
           basis = 6-31++g**
  max_scf_cycles = 200
      mem_static = 100
       mem_total = 1500
   scf_algorithm = diis
       scf_guess = gwh
$end

$opt
CONSTRAINT
tors 4 5 7 9 -150.0
ENDCONSTRAINT
$end

--------------------------------------------------------------

   86   -1104.8403220719      9.18E-09 Convergence criterion met
 Total energy in the final basis set = -1104.8403220719
   11   -1104.8406820885      5.31E-09 Convergence criterion met
 Total energy in the final basis set = -1104.8406820885
   10   -1104.8407258221      2.74E-09 Convergence criterion met
 Total energy in the final basis set = -1104.8407258221
    9   -1104.8407387995      7.20E-09 Convergence criterion met
 Total energy in the final basis set = -1104.8407387995
    9   -1104.8407399225      2.07E-09 Convergence criterion met
 Total energy in the final basis set = -1104.8407399225

             Standard Nuclear Orientation (Angstroms)
    I     Atom           X                Y                Z
 ----------------------------------------------------------------
    1      S       1.8403393951    -1.1747179980    -0.3158878145
    2      C       3.2072267079    -0.1338424540    -0.0762443385
    3      C       2.8208694258     1.1371396241     0.2594705891
    4      C       1.4053394334     1.2813128600     0.3426206530
    5      C       0.7171972301     0.1183161825     0.0651654035
    6      H       0.9086299680     2.2039253812     0.6215675398
    7      C      -0.7171972301    -0.1183161825     0.0651654035
    8      S      -1.8403393951     1.1747179980    -0.3158878145
    9      C      -1.4053394334    -1.2813128600     0.3426206530
   10      C      -3.2072267079     0.1338424540    -0.0762443385
   11      C      -2.8208694258    -1.1371396241     0.2594705891
   12      H      -3.5213556190    -1.9414160097     0.4531978223
   13      H       4.2092348332    -0.5218257557    -0.1981921096
   14      H       3.5213556190     1.9414160097     0.4531978223
   15      H      -4.2092348332     0.5218257557    -0.1981921096
   16      H      -0.9086299680    -2.2039253812     0.6215675398
 ----------------------------------------------------------------

    8   -1104.8407404134      6.72E-09 Convergence criterion met
 Total energy in the final basis set = -1104.8407404134
 Final energy is   -1104.84074041344
 **  OPTIMIZATION CONVERGED  **

             Orbital Energies (a.u.) and Symmetries
 --------------------------------------------------------------

 Alpha MOs, Restricted
 -- Occupied --
-88.920 -88.920 -10.239 -10.238 -10.225 -10.225 -10.204 -10.204
  1 B     1 A     2 A     2 B     3 B     3 A     4 B     4 A
-10.203 -10.203  -7.979  -7.979  -5.943  -5.943  -5.940  -5.940
  5 B     5 A     6 A     6 B     7 A     7 B     8 B     8 A
 -5.936  -5.936  -0.900  -0.878  -0.771  -0.749  -0.738  -0.706
  9 B     9 A    10 A    10 B    11 A    11 B    12 A    12 B
 -0.604  -0.579  -0.553  -0.534  -0.526  -0.478  -0.420  -0.418
 13 A    13 B    14 A    14 B    15 A    15 B    16 B    16 A
 -0.408  -0.405  -0.400  -0.378  -0.374  -0.357  -0.345  -0.278
 17 A    17 B    18 A    19 A    18 B    19 B    20 A    21 A
 -0.263  -0.260  -0.215
 20 B    22 A    21 B

 Beta MOs, Restricted
 -- Occupied --
-88.920 -88.920 -10.239 -10.238 -10.225 -10.225 -10.204 -10.204
  1 B     1 A     2 A     2 B     3 B     3 A     4 B     4 A
-10.203 -10.203  -7.979  -7.979  -5.943  -5.943  -5.940  -5.940
  5 B     5 A     6 A     6 B     7 A     7 B     8 B     8 A
 -5.936  -5.936  -0.900  -0.878  -0.771  -0.749  -0.738  -0.706
  9 B     9 A    10 A    10 B    11 A    11 B    12 A    12 B
 -0.604  -0.579  -0.553  -0.534  -0.526  -0.478  -0.420  -0.418
 13 A    13 B    14 A    14 B    15 A    15 B    16 B    16 A
 -0.408  -0.405  -0.400  -0.378  -0.374  -0.357  -0.345  -0.278
 17 A    17 B    18 A    19 A    18 B    19 B    20 A    21 A
 -0.263  -0.260  -0.215
 20 B    22 A    21 B

          Ground-State Mulliken Net Atomic Charges

     Atom                 Charge (a.u.)
  ----------------------------------------
      1 S                    -0.058224
      2 C                    -0.038830
      3 C                    -0.392343
      4 C                     0.306322
      5 C                    -0.248421
      6 H                     0.128632
      7 C                    -0.248421
      8 S                    -0.058224
      9 C                     0.306322
     10 C                    -0.038830
     11 C                    -0.392343
     12 H                     0.114928
     13 H                     0.187937
     14 H                     0.114928
     15 H                     0.187937
     16 H                     0.128632
  ----------------------------------------
  Sum of atomic charges =     0.000000

                    Cartesian Multipole Moments
 -----------------------------------------------------------------
    Charge (ESU x 10^10)
                 0.0000
    Dipole Moment (Debye)
         X      -0.0000      Y      -0.0000      Z       0.3318
       Tot       0.3318
    Quadrupole Moments (Debye-Ang)
        XX     -61.1493     XY       1.5202     YY     -68.7019
        XZ       0.0000     YZ      -0.0000     ZZ     -78.1532

 Total job time:  61.53s(wall), 69.78s(cpu)
        *  Thank you very much for using Q-Chem.  Have a nice day.  *
