 Q-Chem 4.4, Q-Chem, Inc., Pleasanton, CA (2016)
 Q-Chem 4.4.1 for Intel X86 EM64T Linux

User input:
--------------------------------------------------------------
$molecule
 0  1
 S           1.82267924       -1.19997629        0.28714109
 C           3.20006180       -0.17260711        0.06528466
 C           2.82980603        1.10216298       -0.25610036
 C           1.41909100        1.26345446       -0.34254814
 C           0.71738150        0.10901545       -0.08456145
 H           0.93627498        2.19419272       -0.61095402
 C          -0.71741859       -0.10899254       -0.08455524
 S          -1.65691630        0.10885505        1.37940909
 C          -1.53599595       -0.49431368       -1.12048061
 C          -3.12825426       -0.30018565        0.56103216
 C          -2.90561468       -0.60348066       -0.75192645
 H          -3.69269648       -0.88575145       -1.43861363
 H           4.19429620       -0.57452886        0.18632814
 H           3.53860725        1.89960515       -0.43610218
 H          -4.06281527       -0.29097931        1.10066685
 H          -1.16798283       -0.66952392       -2.12312435
$end

$rem
         jobtype = opt
        exchange = b3lyp
           basis = 6-31++g**
  max_scf_cycles = 75
      mem_static = 100
       mem_total = 1500
$end

$opt
CONSTRAINT
tors 4 5 7 9 90.0
ENDCONSTRAINT
$end

--------------------------------------------------------------

   25   -1104.8368246518      9.07E-09 Convergence criterion met
 Total energy in the final basis set = -1104.8368246518
   11   -1104.8372098355      5.39E-09 Convergence criterion met
 Total energy in the final basis set = -1104.8372098355
   10   -1104.8372369238      5.10E-09 Convergence criterion met
 Total energy in the final basis set = -1104.8372369238
    9   -1104.8372432088      7.22E-09 Convergence criterion met
 Total energy in the final basis set = -1104.8372432088
    9   -1104.8372442204      2.27E-09 Convergence criterion met
 Total energy in the final basis set = -1104.8372442204

             Standard Nuclear Orientation (Angstroms)
    I     Atom           X                Y                Z
 ----------------------------------------------------------------
    1      S       1.7405016099    -0.8942870955     0.8166602583
    2      C       3.1831876089    -0.1517988757     0.2115307256
    3      C       2.9060432270     0.7852080323    -0.7496909162
    4      C       1.5079745519     0.9130952234    -1.0066369769
    5      C       0.7303387663     0.0717264908    -0.2453026178
    6      H       1.0806859695     1.6005391411    -1.7279522920
    7      C      -0.7303387663    -0.0717264908    -0.2453026178
    8      S      -1.7405016099     0.8942870955     0.8166602583
    9      C      -1.5079745519    -0.9130952234    -1.0066369769
   10      C      -3.1831876089     0.1517988757     0.2115307256
   11      C      -2.9060432270    -0.7852080323    -0.7496909162
   12      H      -3.6694956171    -1.3643800040    -1.2566087086
   13      H       4.1496699518    -0.4499509470     0.5952261458
   14      H       3.6694956171     1.3643800040    -1.2566087086
   15      H      -4.1496699518     0.4499509470     0.5952261458
   16      H      -1.0806859695    -1.6005391411    -1.7279522920
 ----------------------------------------------------------------

    8   -1104.8372444959      6.34E-09 Convergence criterion met
 Total energy in the final basis set = -1104.8372444959
 Final energy is   -1104.83724449587
 **  OPTIMIZATION CONVERGED  **

             Orbital Energies (a.u.) and Symmetries
 --------------------------------------------------------------

 Alpha MOs, Restricted
 -- Occupied --
-88.919 -88.919 -10.235 -10.235 -10.224 -10.224 -10.204 -10.204
  1 B     1 A     2 A     2 B     3 B     3 A     4 A     4 B
-10.203 -10.203  -7.978  -7.978  -5.942  -5.942  -5.939  -5.939
  5 B     5 A     6 B     6 A     7 B     7 A     8 B     8 A
 -5.935  -5.935  -0.898  -0.877  -0.768  -0.741  -0.741  -0.705
  9 B     9 A    10 A    10 B    11 A    12 A    11 B    12 B
 -0.600  -0.567  -0.565  -0.534  -0.523  -0.478  -0.417  -0.414
 13 A    13 B    14 A    14 B    15 A    15 B    16 A    16 B
 -0.413  -0.406  -0.393  -0.375  -0.375  -0.351  -0.350  -0.264
 17 A    17 B    18 A    19 A    18 B    19 B    20 A    21 A
 -0.257  -0.243  -0.243
 20 B    21 B    22 A

 Beta MOs, Restricted
 -- Occupied --
-88.919 -88.919 -10.235 -10.235 -10.224 -10.224 -10.204 -10.204
  1 B     1 A     2 A     2 B     3 B     3 A     4 A     4 B
-10.203 -10.203  -7.978  -7.978  -5.942  -5.942  -5.939  -5.939
  5 B     5 A     6 B     6 A     7 B     7 A     8 B     8 A
 -5.935  -5.935  -0.898  -0.877  -0.768  -0.741  -0.741  -0.705
  9 B     9 A    10 A    10 B    11 A    12 A    11 B    12 B
 -0.600  -0.567  -0.565  -0.534  -0.523  -0.478  -0.417  -0.414
 13 A    13 B    14 A    14 B    15 A    15 B    16 A    16 B
 -0.413  -0.406  -0.393  -0.375  -0.375  -0.351  -0.350  -0.264
 17 A    17 B    18 A    19 A    18 B    19 B    20 A    21 A
 -0.257  -0.243  -0.243
 20 B    21 B    22 A

          Ground-State Mulliken Net Atomic Charges

     Atom                 Charge (a.u.)
  ----------------------------------------
      1 S                     0.057284
      2 C                    -0.042605
      3 C                    -0.381284
      4 C                     0.319552
      5 C                    -0.391343
      6 H                     0.131955
      7 C                    -0.391343
      8 S                     0.057284
      9 C                     0.319552
     10 C                    -0.042605
     11 C                    -0.381284
     12 H                     0.118788
     13 H                     0.187652
     14 H                     0.118788
     15 H                     0.187652
     16 H                     0.131955
  ----------------------------------------
  Sum of atomic charges =    -0.000000

                    Cartesian Multipole Moments
 -----------------------------------------------------------------
    Charge (ESU x 10^10)
                -0.0000
    Dipole Moment (Debye)
         X       0.0000      Y      -0.0000      Z      -0.7485
       Tot       0.7485
    Quadrupole Moments (Debye-Ang)
        XX     -61.0985     XY       1.4115     YY     -73.3286
        XZ       0.0000     YZ       0.0000     ZZ     -73.1356

 Total job time:  43.36s(wall), 47.85s(cpu)
        *  Thank you very much for using Q-Chem.  Have a nice day.  *
