 Q-Chem 4.4, Q-Chem, Inc., Pleasanton, CA (2016)
 Q-Chem 4.4.1 for Intel X86 EM64T Linux

User input:
--------------------------------------------------------------
$comment
<SCF Fix Strategy>{
    "current_method_id": 1,
    "methods": [
        "increase_iter",
        "rca_diis",
        "gwh",
        "gdm",
        "rca",
        "core+rca",
        "fon"
    ],
    "version": 2.0
}</SCF Fix Strategy>
$end

$molecule
 0  1
 S           1.82267924       -1.19997629        0.28714109
 C           3.20006180       -0.17260711        0.06528466
 C           2.82980603        1.10216298       -0.25610036
 C           1.41909100        1.26345446       -0.34254814
 C           0.71738150        0.10901545       -0.08456145
 H           0.93627498        2.19419272       -0.61095402
 C          -0.71741859       -0.10899254       -0.08455524
 S          -1.72890273        0.58262129        1.16918923
 C          -1.48510859       -0.82922004       -0.96977108
 C          -3.15985464       -0.09221335        0.46288526
 C          -2.87277666       -0.81959845       -0.65689763
 H          -3.62603435       -1.32447682       -1.24716411
 H           4.19429620       -0.57452886        0.18632814
 H           3.53860725        1.89960515       -0.43610218
 H          -4.12078683        0.09055013        0.91884741
 H          -1.06765130       -1.32983866       -1.83379490
$end

$rem
         jobtype = opt
        exchange = b3lyp
           basis = 6-31++g**
  max_scf_cycles = 200
      mem_static = 100
       mem_total = 1500
   scf_algorithm = rca_diis
       scf_guess = sad
$end

$opt
CONSTRAINT
tors 4 5 7 9 110.0
ENDCONSTRAINT
$end

--------------------------------------------------------------

   66   -1104.8377989385      2.82E-09 Convergence criterion met
 Total energy in the final basis set = -1104.8377989385
   11   -1104.8380968440      4.23E-09 Convergence criterion met
 Total energy in the final basis set = -1104.8380968440
   10   -1104.8381364290      8.87E-09 Convergence criterion met
 Total energy in the final basis set = -1104.8381364290
   11   -1104.8381732950      4.91E-09 Convergence criterion met
 Total energy in the final basis set = -1104.8381732950
   10   -1104.8381856073      8.44E-09 Convergence criterion met
 Total energy in the final basis set = -1104.8381856073
   10   -1104.8381900542      4.64E-09 Convergence criterion met
 Total energy in the final basis set = -1104.8381900542

             Standard Nuclear Orientation (Angstroms)
    I     Atom           X                Y                Z
 ----------------------------------------------------------------
    1      S       1.7901963710    -1.0437339821     0.6356653823
    2      C       3.1986111840    -0.1718768843     0.1288223047
    3      C       2.8691027061     0.9367657053    -0.6069804474
    4      C       1.4606677019     1.0872231075    -0.7772731647
    5      C       0.7254016051     0.0993857206    -0.1618678543
    6      H       0.9980958610     1.8895043022    -1.3410694845
    7      C      -0.7254016051    -0.0993857206    -0.1618678543
    8      S      -1.7901963710     1.0437339821     0.6356653823
    9      C      -1.4606677019    -1.0872231075    -0.7772731647
   10      C      -3.1986111840     0.1718768843     0.1288223047
   11      C      -2.8691027061    -0.9367657053    -0.6069804474
   12      H      -3.6038735118    -1.6175279785    -1.0216872875
   13      H       4.1839203139    -0.5257913378     0.4007706839
   14      H       3.6038735118     1.6175279785    -1.0216872875
   15      H      -4.1839203139     0.5257913378     0.4007706839
   16      H      -0.9980958610    -1.8895043022    -1.3410694845
 ----------------------------------------------------------------

    9   -1104.8381906834      2.59E-09 Convergence criterion met
 Total energy in the final basis set = -1104.8381906834
 Final energy is   -1104.83819068341
 **  OPTIMIZATION CONVERGED  **

             Orbital Energies (a.u.) and Symmetries
 --------------------------------------------------------------

 Alpha MOs, Restricted
 -- Occupied --
-88.919 -88.919 -10.236 -10.236 -10.224 -10.224 -10.204 -10.204
  1 B     1 A     2 A     2 B     3 B     3 A     4 A     4 B
-10.203 -10.203  -7.979  -7.979  -5.943  -5.943  -5.939  -5.939
  5 B     5 A     6 B     6 A     7 B     7 A     8 B     8 A
 -5.936  -5.936  -0.898  -0.878  -0.769  -0.744  -0.740  -0.705
  9 B     9 A    10 A    10 B    11 A    11 B    12 A    12 B
 -0.601  -0.572  -0.560  -0.534  -0.523  -0.478  -0.417  -0.417
 13 A    13 B    14 A    14 B    15 A    15 B    16 A    16 B
 -0.410  -0.406  -0.395  -0.376  -0.375  -0.353  -0.348  -0.264
 17 A    17 B    18 A    19 A    18 B    19 B    20 A    21 A
 -0.258  -0.257  -0.229
 20 B    22 A    21 B

 Beta MOs, Restricted
 -- Occupied --
-88.919 -88.919 -10.236 -10.236 -10.224 -10.224 -10.204 -10.204
  1 B     1 A     2 A     2 B     3 B     3 A     4 A     4 B
-10.203 -10.203  -7.979  -7.979  -5.943  -5.943  -5.939  -5.939
  5 B     5 A     6 B     6 A     7 B     7 A     8 B     8 A
 -5.936  -5.936  -0.898  -0.878  -0.769  -0.744  -0.740  -0.705
  9 B     9 A    10 A    10 B    11 A    11 B    12 A    12 B
 -0.601  -0.572  -0.560  -0.534  -0.523  -0.478  -0.417  -0.417
 13 A    13 B    14 A    14 B    15 A    15 B    16 A    16 B
 -0.410  -0.406  -0.395  -0.376  -0.375  -0.353  -0.348  -0.264
 17 A    17 B    18 A    19 A    18 B    19 B    20 A    21 A
 -0.258  -0.257  -0.229
 20 B    22 A    21 B

          Ground-State Mulliken Net Atomic Charges

     Atom                 Charge (a.u.)
  ----------------------------------------
      1 S                     0.060661
      2 C                    -0.049983
      3 C                    -0.364544
      4 C                     0.241529
      5 C                    -0.328510
      6 H                     0.135263
      7 C                    -0.328510
      8 S                     0.060661
      9 C                     0.241529
     10 C                    -0.049983
     11 C                    -0.364544
     12 H                     0.118101
     13 H                     0.187481
     14 H                     0.118101
     15 H                     0.187481
     16 H                     0.135263
  ----------------------------------------
  Sum of atomic charges =     0.000000

                    Cartesian Multipole Moments
 -----------------------------------------------------------------
    Charge (ESU x 10^10)
                 0.0000
    Dipole Moment (Debye)
         X      -0.0000      Y       0.0000      Z      -0.6592
       Tot       0.6592
    Quadrupole Moments (Debye-Ang)
        XX     -61.1521     XY       1.2672     YY     -71.2928
        XZ       0.0000     YZ       0.0000     ZZ     -75.3227

 Total job time:  94.29s(wall), 104.75s(cpu)
        *  Thank you very much for using Q-Chem.  Have a nice day.  *
