 Q-Chem 4.4, Q-Chem, Inc., Pleasanton, CA (2016)
 Q-Chem 4.4.1 for Intel X86 EM64T Linux

User input:
--------------------------------------------------------------
$molecule
 0  1
 S           1.82267924       -1.19997629        0.28714109
 C           3.20006180       -0.17260711        0.06528466
 C           2.82980603        1.10216298       -0.25610036
 C           1.41909100        1.26345446       -0.34254814
 C           0.71738150        0.10901545       -0.08456145
 H           0.93627498        2.19419272       -0.61095402
 C          -0.71741859       -0.10899254       -0.08455524
 S          -1.44703672       -1.27252139       -1.17412536
 C          -1.68611225        0.49371469        0.68359791
 C          -3.03123962       -0.93871063       -0.55706620
 C          -3.00063359        0.02191097        0.41333885
 H          -3.88437083        0.37580354        0.92761736
 H           4.19429620       -0.57452886        0.18632814
 H           3.53860725        1.89960515       -0.43610218
 H          -3.88336910       -1.47204664       -0.94965084
 H          -1.45745233        1.23569515        1.43765785
$end

$rem
         jobtype = opt
        exchange = b3lyp
           basis = 6-31++g**
  max_scf_cycles = 75
      mem_static = 100
       mem_total = 1500
$end

$opt
CONSTRAINT
tors 4 5 7 9 -60.0
ENDCONSTRAINT
$end

--------------------------------------------------------------

   29   -1104.8382494262      4.40E-09 Convergence criterion met
 Total energy in the final basis set = -1104.8382494262
   11   -1104.8385757791      2.68E-09 Convergence criterion met
 Total energy in the final basis set = -1104.8385757791
   10   -1104.8386115841      7.93E-09 Convergence criterion met
 Total energy in the final basis set = -1104.8386115841
   10   -1104.8386213157      3.31E-09 Convergence criterion met
 Total energy in the final basis set = -1104.8386213157
    9   -1104.8386238827      8.69E-09 Convergence criterion met
 Total energy in the final basis set = -1104.8386238827
   10   -1104.8386255461      4.37E-09 Convergence criterion met
 Total energy in the final basis set = -1104.8386255461

             Standard Nuclear Orientation (Angstroms)
    I     Atom           X                Y                Z
 ----------------------------------------------------------------
    1      S       1.6933109632     0.6249193337     1.0219840353
    2      C       3.1675770729     0.1068458657     0.2722300454
    3      C       2.9332050329    -0.5357451922    -0.9152437133
    4      C       1.5441495322    -0.6278535441    -1.2272921808
    5      C       0.7296897015    -0.0393608340    -0.2854576810
    6      H       1.1489011637    -1.1233771273    -2.1067747296
    7      C      -0.7296897015     0.0393608340    -0.2854576810
    8      S      -1.6933109632    -0.6249193337     1.0219840353
    9      C      -1.5441495322     0.6278535441    -1.2272921808
   10      C      -3.1675770729    -0.1068458657     0.2722300454
   11      C      -2.9332050329     0.5357451922    -0.9152437133
   12      H      -3.7213723348     0.9401637756    -1.5401197129
   13      H       4.1169867164     0.3062783919     0.7504281547
   14      H       3.7213723348    -0.9401637756    -1.5401197129
   15      H      -4.1169867164    -0.3062783919     0.7504281547
   16      H      -1.1489011637     1.1233771273    -2.1067747296
 ----------------------------------------------------------------

    9   -1104.8386258393      4.20E-09 Convergence criterion met
 Total energy in the final basis set = -1104.8386258393
 Final energy is   -1104.83862583934
 **  OPTIMIZATION CONVERGED  **

             Orbital Energies (a.u.) and Symmetries
 --------------------------------------------------------------

 Alpha MOs, Restricted
 -- Occupied --
-88.919 -88.919 -10.237 -10.236 -10.225 -10.225 -10.204 -10.204
  1 B     1 A     2 A     2 B     3 B     3 A     4 A     4 B
-10.203 -10.203  -7.979  -7.979  -5.943  -5.943  -5.939  -5.939
  5 B     5 A     6 B     6 A     7 B     7 A     8 B     8 A
 -5.936  -5.936  -0.899  -0.878  -0.769  -0.745  -0.739  -0.705
  9 B     9 A    10 A    10 B    11 A    12 A    11 B    12 B
 -0.601  -0.572  -0.560  -0.534  -0.524  -0.477  -0.419  -0.415
 13 A    14 A    13 B    14 B    15 A    15 B    16 A    17 A
 -0.412  -0.404  -0.395  -0.375  -0.374  -0.353  -0.349  -0.263
 16 B    17 B    18 A    18 B    19 A    20 A    19 B    21 A
 -0.263  -0.258  -0.226
 20 B    21 B    22 A

 Beta MOs, Restricted
 -- Occupied --
-88.919 -88.919 -10.237 -10.236 -10.225 -10.225 -10.204 -10.204
  1 B     1 A     2 A     2 B     3 B     3 A     4 A     4 B
-10.203 -10.203  -7.979  -7.979  -5.943  -5.943  -5.939  -5.939
  5 B     5 A     6 B     6 A     7 B     7 A     8 B     8 A
 -5.936  -5.936  -0.899  -0.878  -0.769  -0.745  -0.739  -0.705
  9 B     9 A    10 A    10 B    11 A    12 A    11 B    12 B
 -0.601  -0.572  -0.560  -0.534  -0.524  -0.477  -0.419  -0.415
 13 A    14 A    13 B    14 B    15 A    15 B    16 A    17 A
 -0.412  -0.404  -0.395  -0.375  -0.374  -0.353  -0.349  -0.263
 16 B    17 B    18 A    18 B    19 A    20 A    19 B    21 A
 -0.263  -0.258  -0.226
 20 B    21 B    22 A

          Ground-State Mulliken Net Atomic Charges

     Atom                 Charge (a.u.)
  ----------------------------------------
      1 S                     0.022520
      2 C                    -0.043781
      3 C                    -0.426103
      4 C                     0.313210
      5 C                    -0.314432
      6 H                     0.143399
      7 C                    -0.314432
      8 S                     0.022520
      9 C                     0.313210
     10 C                    -0.043781
     11 C                    -0.426104
     12 H                     0.116546
     13 H                     0.188641
     14 H                     0.116546
     15 H                     0.188641
     16 H                     0.143399
  ----------------------------------------
  Sum of atomic charges =     0.000000

                    Cartesian Multipole Moments
 -----------------------------------------------------------------
    Charge (ESU x 10^10)
                 0.0000
    Dipole Moment (Debye)
         X      -0.0000      Y      -0.0000      Z      -0.8871
       Tot       0.8871
    Quadrupole Moments (Debye-Ang)
        XX     -61.0270     XY      -1.1924     YY     -76.1185
        XZ      -0.0000     YZ       0.0000     ZZ     -70.3229

 Total job time:  52.37s(wall), 57.92s(cpu)
        *  Thank you very much for using Q-Chem.  Have a nice day.  *
