 Q-Chem 4.4, Q-Chem, Inc., Pleasanton, CA (2016)
 Q-Chem 4.4.1 for Intel X86 EM64T Linux

User input:
--------------------------------------------------------------
$comment
<SCF Fix Strategy>{
    "current_method_id": 0,
    "methods": [
        "increase_iter",
        "rca_diis",
        "gwh",
        "gdm",
        "rca",
        "core+rca",
        "fon"
    ],
    "version": 2.0
}</SCF Fix Strategy>
$end

$molecule
 0  1
 S           1.82267924       -1.19997629        0.28714109
 C           3.20006180       -0.17260711        0.06528466
 C           2.82980603        1.10216298       -0.25610036
 C           1.41909100        1.26345446       -0.34254814
 C           0.71738150        0.10901545       -0.08456145
 H           0.93627498        2.19419272       -0.61095402
 C          -0.71741859       -0.10899254       -0.08455524
 S          -1.57847122       -0.40742327        1.41305370
 C          -1.59155709       -0.12864378       -1.14624181
 C          -3.09351733       -0.52880304        0.58131294
 C          -2.94135439       -0.36826335       -0.76645930
 H          -3.76517403       -0.40874778       -1.46674215
 H           4.19429620       -0.57452886        0.18632814
 H           3.53860725        1.89960515       -0.43610218
 H          -3.99899888       -0.71098006        1.13953273
 H          -1.27712781        0.04880273       -2.16657201
$end

$rem
         jobtype = opt
        exchange = b3lyp
           basis = 6-31++g**
  max_scf_cycles = 200
      mem_static = 100
       mem_total = 1500
   scf_algorithm = diis
       scf_guess = sad
$end

$opt
CONSTRAINT
tors 4 5 7 9 70.0
ENDCONSTRAINT
$end

--------------------------------------------------------------

   86   -1104.8374248915      8.39E-09 Convergence criterion met
 Total energy in the final basis set = -1104.8374248915
   11   -1104.8378697029      6.40E-09 Convergence criterion met
 Total energy in the final basis set = -1104.8378697029
   10   -1104.8379248375      7.40E-09 Convergence criterion met
 Total energy in the final basis set = -1104.8379248375
   10   -1104.8379403873      3.61E-09 Convergence criterion met
 Total energy in the final basis set = -1104.8379403873
    9   -1104.8379430641      5.42E-09 Convergence criterion met
 Total energy in the final basis set = -1104.8379430641
    9   -1104.8379444894      6.13E-09 Convergence criterion met
 Total energy in the final basis set = -1104.8379444894

             Standard Nuclear Orientation (Angstroms)
    I     Atom           X                Y                Z
 ----------------------------------------------------------------
    1      S       1.7020075798    -0.7203206563     0.9587704467
    2      C       3.1705921452    -0.1292561071     0.2546024196
    3      C       2.9294607311     0.6125137870    -0.8722409762
    4      C       1.5388320415     0.7195208033    -1.1738315489
    5      C       0.7307319409     0.0459618538    -0.2862335938
    6      H       1.1378487852     1.2815938646    -2.0096703424
    7      C      -0.7307319409    -0.0459618538    -0.2862335938
    8      S      -1.7020075798     0.7203206563     0.9587704467
    9      C      -1.5388320415    -0.7195208033    -1.1738315489
   10      C      -3.1705921452     0.1292561071     0.2546024196
   11      C      -2.9294607311    -0.6125137870    -0.8722409762
   12      H      -3.7134552770    -1.0743524980    -1.4615568512
   13      H       4.1229476923    -0.3642510725     0.7104075433
   14      H       3.7134552770     1.0743524980    -1.4615568512
   15      H      -4.1229476923     0.3642510725     0.7104075433
   16      H      -1.1378487852    -1.2815938646    -2.0096703424
 ----------------------------------------------------------------

    9   -1104.8379447743      2.72E-09 Convergence criterion met
 Total energy in the final basis set = -1104.8379447743
 Final energy is   -1104.83794477425
 **  OPTIMIZATION CONVERGED  **

             Orbital Energies (a.u.) and Symmetries
 --------------------------------------------------------------

 Alpha MOs, Restricted
 -- Occupied --
-88.919 -88.919 -10.236 -10.236 -10.225 -10.225 -10.204 -10.204
  1 B     1 A     2 A     2 B     3 B     3 A     4 A     4 B
-10.203 -10.203  -7.978  -7.978  -5.942  -5.942  -5.939  -5.939
  5 B     5 A     6 B     6 A     7 B     7 A     8 B     8 A
 -5.936  -5.936  -0.898  -0.877  -0.769  -0.744  -0.740  -0.705
  9 B     9 A    10 A    10 B    11 A    12 A    11 B    12 B
 -0.601  -0.570  -0.562  -0.534  -0.523  -0.477  -0.418  -0.414
 13 A    14 A    13 B    14 B    15 A    15 B    16 A    17 A
 -0.412  -0.405  -0.394  -0.375  -0.374  -0.352  -0.349  -0.264
 16 B    17 B    18 A    18 B    19 A    20 A    19 B    21 A
 -0.258  -0.256  -0.231
 20 B    21 B    22 A

 Beta MOs, Restricted
 -- Occupied --
-88.919 -88.919 -10.236 -10.236 -10.225 -10.225 -10.204 -10.204
  1 B     1 A     2 A     2 B     3 B     3 A     4 A     4 B
-10.203 -10.203  -7.978  -7.978  -5.942  -5.942  -5.939  -5.939
  5 B     5 A     6 B     6 A     7 B     7 A     8 B     8 A
 -5.936  -5.936  -0.898  -0.877  -0.769  -0.744  -0.740  -0.705
  9 B     9 A    10 A    10 B    11 A    12 A    11 B    12 B
 -0.601  -0.570  -0.562  -0.534  -0.523  -0.477  -0.418  -0.414
 13 A    14 A    13 B    14 B    15 A    15 B    16 A    17 A
 -0.412  -0.405  -0.394  -0.375  -0.374  -0.352  -0.349  -0.264
 16 B    17 B    18 A    18 B    19 A    20 A    19 B    21 A
 -0.258  -0.256  -0.231
 20 B    21 B    22 A

          Ground-State Mulliken Net Atomic Charges

     Atom                 Charge (a.u.)
  ----------------------------------------
      1 S                     0.034610
      2 C                    -0.035134
      3 C                    -0.422339
      4 C                     0.339612
      5 C                    -0.361959
      6 H                     0.139100
      7 C                    -0.361959
      8 S                     0.034610
      9 C                     0.339612
     10 C                    -0.035134
     11 C                    -0.422339
     12 H                     0.117073
     13 H                     0.189035
     14 H                     0.117073
     15 H                     0.189035
     16 H                     0.139100
  ----------------------------------------
  Sum of atomic charges =    -0.000000

                    Cartesian Multipole Moments
 -----------------------------------------------------------------
    Charge (ESU x 10^10)
                -0.0000
    Dipole Moment (Debye)
         X      -0.0000      Y       0.0000      Z      -0.8418
       Tot       0.8418
    Quadrupole Moments (Debye-Ang)
        XX     -61.0431     XY       1.2805     YY     -75.2672
        XZ      -0.0000     YZ      -0.0000     ZZ     -71.1579

 Total job time:  73.90s(wall), 83.45s(cpu)
        *  Thank you very much for using Q-Chem.  Have a nice day.  *
