 Q-Chem 4.4, Q-Chem, Inc., Pleasanton, CA (2016)
 Q-Chem 4.4.1 for Intel X86 EM64T Linux

User input:
--------------------------------------------------------------
$comment
<SCF Fix Strategy>{
    "current_method_id": 0,
    "methods": [
        "increase_iter",
        "rca_diis",
        "gwh",
        "gdm",
        "rca",
        "core+rca",
        "fon"
    ],
    "version": 2.0
}</SCF Fix Strategy>
$end

$molecule
 0  1
 S           1.82267924       -1.19997629        0.28714109
 C           3.20006180       -0.17260711        0.06528466
 C           2.82980603        1.10216298       -0.25610036
 C           1.41909100        1.26345446       -0.34254814
 C           0.71738150        0.10901545       -0.08456145
 H           0.93627498        2.19419272       -0.61095402
 C          -0.71741859       -0.10899254       -0.08455524
 S          -1.42098918       -1.44394535       -0.97685255
 C          -1.70445825        0.61445327        0.54318796
 C          -3.01999224       -1.01273173       -0.46780001
 C          -3.01254331        0.10029122        0.32374341
 H          -3.90859449        0.53522425        0.74640094
 H           4.19429620       -0.57452886        0.18632814
 H           3.53860725        1.89960515       -0.43610218
 H          -3.86279185       -1.60746932       -0.78508643
 H          -1.49387306        1.47538715        1.16437512
$end

$rem
         jobtype = opt
        exchange = b3lyp
           basis = 6-31++g**
  max_scf_cycles = 200
      mem_static = 100
       mem_total = 1500
   scf_algorithm = diis
       scf_guess = sad
$end

$opt
CONSTRAINT
tors 4 5 7 9 -50.0
ENDCONSTRAINT
$end

--------------------------------------------------------------

  156   -1104.8389193776      6.01E-09 Convergence criterion met
 Total energy in the final basis set = -1104.8389193776
   10   -1104.8392179032      7.66E-09 Convergence criterion met
 Total energy in the final basis set = -1104.8392179032
   11   -1104.8392524020      3.48E-09 Convergence criterion met
 Total energy in the final basis set = -1104.8392524020
   10   -1104.8392584486      7.29E-09 Convergence criterion met
 Total energy in the final basis set = -1104.8392584486

             Standard Nuclear Orientation (Angstroms)
    I     Atom           X                Y                Z
 ----------------------------------------------------------------
    1      S       1.6868659897     0.5397528783     1.0645066893
    2      C       3.1659686773     0.0991747718     0.2746154610
    3      C       2.9365097010    -0.4494346797    -0.9599288725
    4      C       1.5483889041    -0.5343954935    -1.2767051146
    5      C       0.7285618517    -0.0343805026    -0.2884849017
    6      H       1.1582478954    -0.9674379586    -2.1906851944
    7      C      -0.7285618517     0.0343805026    -0.2884849017
    8      S      -1.6868659897    -0.5397528783     1.0645066893
    9      C      -1.5483889041     0.5343954935    -1.2767051146
   10      C      -3.1659686773    -0.0991747718     0.2746154610
   11      C      -2.9365097010     0.4494346797    -0.9599288725
   12      H      -3.7279415196     0.7952407257    -1.6151574529
   13      H       4.1135311562     0.2688007606     0.7676254768
   14      H       3.7279415196    -0.7952407257    -1.6151574529
   15      H      -4.1135311562    -0.2688007606     0.7676254768
   16      H      -1.1582478954     0.9674379586    -2.1906851944
 ----------------------------------------------------------------

    9   -1104.8392593244      3.47E-09 Convergence criterion met
 Total energy in the final basis set = -1104.8392593244
 Final energy is   -1104.83925932437
 **  OPTIMIZATION CONVERGED  **

             Orbital Energies (a.u.) and Symmetries
 --------------------------------------------------------------

 Alpha MOs, Restricted
 -- Occupied --
-88.920 -88.920 -10.237 -10.237 -10.225 -10.225 -10.204 -10.204
  1 B     1 A     2 A     2 B     3 B     3 A     4 B     4 A
-10.203 -10.203  -7.979  -7.979  -5.943  -5.943  -5.939  -5.939
  5 B     5 A     6 B     6 A     7 B     7 A     8 B     8 A
 -5.936  -5.936  -0.899  -0.878  -0.770  -0.746  -0.738  -0.705
  9 A     9 B    10 A    10 B    11 A    12 A    11 B    12 B
 -0.602  -0.574  -0.558  -0.534  -0.524  -0.477  -0.419  -0.416
 13 A    14 A    13 B    14 B    15 A    15 B    16 A    17 A
 -0.411  -0.404  -0.397  -0.376  -0.374  -0.355  -0.348  -0.268
 16 B    17 B    18 A    18 B    19 A    20 A    19 B    20 B
 -0.262  -0.260  -0.222
 21 A    21 B    22 A

 Beta MOs, Restricted
 -- Occupied --
-88.920 -88.920 -10.237 -10.237 -10.225 -10.225 -10.204 -10.204
  1 B     1 A     2 A     2 B     3 B     3 A     4 B     4 A
-10.203 -10.203  -7.979  -7.979  -5.943  -5.943  -5.939  -5.939
  5 B     5 A     6 B     6 A     7 B     7 A     8 B     8 A
 -5.936  -5.936  -0.899  -0.878  -0.770  -0.746  -0.738  -0.705
  9 A     9 B    10 A    10 B    11 A    12 A    11 B    12 B
 -0.602  -0.574  -0.558  -0.534  -0.524  -0.477  -0.419  -0.416
 13 A    14 A    13 B    14 B    15 A    15 B    16 A    17 A
 -0.411  -0.404  -0.397  -0.376  -0.374  -0.355  -0.348  -0.268
 16 B    17 B    18 A    18 B    19 A    20 A    19 B    20 B
 -0.262  -0.260  -0.222
 21 A    21 B    22 A

          Ground-State Mulliken Net Atomic Charges

     Atom                 Charge (a.u.)
  ----------------------------------------
      1 S                     0.006671
      2 C                    -0.055307
      3 C                    -0.414106
      4 C                     0.283604
      5 C                    -0.269702
      6 H                     0.144742
      7 C                    -0.269702
      8 S                     0.006671
      9 C                     0.283604
     10 C                    -0.055307
     11 C                    -0.414106
     12 H                     0.116408
     13 H                     0.187690
     14 H                     0.116408
     15 H                     0.187690
     16 H                     0.144742
  ----------------------------------------
  Sum of atomic charges =     0.000000

                    Cartesian Multipole Moments
 -----------------------------------------------------------------
    Charge (ESU x 10^10)
                 0.0000
    Dipole Moment (Debye)
         X      -0.0000      Y      -0.0000      Z      -0.9309
       Tot       0.9309
    Quadrupole Moments (Debye-Ang)
        XX     -60.9971     XY      -1.0197     YY     -76.8506
        XZ      -0.0000     YZ       0.0000     ZZ     -69.6138

 Total job time:  88.03s(wall), 102.02s(cpu)
        *  Thank you very much for using Q-Chem.  Have a nice day.  *
