 Q-Chem 4.4, Q-Chem, Inc., Pleasanton, CA (2016)
 Q-Chem 4.4.1 for Intel X86 EM64T Linux

User input:
--------------------------------------------------------------
$molecule
 0  1
 S           1.82267924       -1.19997629        0.28714109
 C           3.20006180       -0.17260711        0.06528466
 C           2.82980603        1.10216298       -0.25610036
 C           1.41909100        1.26345446       -0.34254814
 C           0.71738150        0.10901545       -0.08456145
 H           0.93627498        2.19419272       -0.61095402
 C          -0.71741859       -0.10899254       -0.08455524
 S          -1.41502935       -1.48312012        0.75115864
 C          -1.70772481        0.63591690       -0.68128481
 C          -3.02001360       -1.01256929        0.29894414
 C          -3.01565193        0.12072786       -0.46331244
 H          -3.91556241        0.58103747       -0.84930472
 H           4.19429620       -0.57452886        0.18632814
 H           3.53860725        1.89960515       -0.43610218
 H          -3.86362561       -1.60194178        0.62398796
 H          -1.50382809        1.54083678       -1.23893424
$end

$rem
         jobtype = opt
        exchange = b3lyp
           basis = 6-31++g**
  max_scf_cycles = 75
      mem_static = 100
       mem_total = 1500
$end

$opt
CONSTRAINT
tors 4 5 7 9 20.0
ENDCONSTRAINT
$end

--------------------------------------------------------------

   50   -1104.8387823377      8.80E-09 Convergence criterion met
 Total energy in the final basis set = -1104.8387823377
   12   -1104.8393272242      1.83E-09 Convergence criterion met
 Total energy in the final basis set = -1104.8393272242
   10   -1104.8394138474      8.58E-09 Convergence criterion met
 Total energy in the final basis set = -1104.8394138474
   10   -1104.8394577606      9.57E-09 Convergence criterion met
 Total energy in the final basis set = -1104.8394577606
   10   -1104.8394709806      7.21E-09 Convergence criterion met
 Total energy in the final basis set = -1104.8394709806
   10   -1104.8394787036      4.61E-09 Convergence criterion met
 Total energy in the final basis set = -1104.8394787036
    9   -1104.8394805734      6.15E-09 Convergence criterion met
 Total energy in the final basis set = -1104.8394805734

             Standard Nuclear Orientation (Angstroms)
    I     Atom           X                Y                Z
 ----------------------------------------------------------------
    1      S       1.6699156000    -0.2671750768     1.1448990238
    2      C       3.1627675595    -0.0746577267     0.2838357500
    3      C       2.9479646459     0.1806554100    -1.0453159708
    4      C       1.5648575025     0.2383462434    -1.3818707672
    5      C       0.7267937521     0.0225696008    -0.3062527342
    6      H       1.1965304010     0.4585375369    -2.3771537652
    7      C      -0.7267937521    -0.0225696008    -0.3062527342
    8      S      -1.6699156000     0.2671750768     1.1448990238
    9      C      -1.5648575025    -0.2383462434    -1.3818707672
   10      C      -3.1627675595     0.0746577267     0.2838357500
   11      C      -2.9479646459    -0.1806554100    -1.0453159708
   12      H      -3.7490169724    -0.3341714759    -1.7594627281
   13      H       4.1034251656    -0.1594272188     0.8103199009
   14      H       3.7490169724     0.3341714759    -1.7594627281
   15      H      -4.1034251656     0.1594272188     0.8103199009
   16      H      -1.1965304010    -0.4585375369    -2.3771537652
 ----------------------------------------------------------------

    9   -1104.8394811605      2.98E-09 Convergence criterion met
 Total energy in the final basis set = -1104.8394811605
 Final energy is   -1104.83948116048
 **  OPTIMIZATION CONVERGED  **

             Orbital Energies (a.u.) and Symmetries
 --------------------------------------------------------------

 Alpha MOs, Restricted
 -- Occupied --
-88.920 -88.920 -10.239 -10.239 -10.225 -10.225 -10.205 -10.205
  1 B     1 A     2 A     2 B     3 B     3 A     4 A     4 B
-10.203 -10.203  -7.979  -7.979  -5.944  -5.944  -5.940  -5.940
  5 B     5 A     6 B     6 A     7 B     7 A     8 B     8 A
 -5.937  -5.936  -0.900  -0.878  -0.771  -0.749  -0.737  -0.705
  9 A     9 B    10 A    10 B    11 A    12 A    11 B    12 B
 -0.604  -0.579  -0.554  -0.533  -0.527  -0.477  -0.421  -0.418
 13 A    14 A    13 B    14 B    15 A    15 B    16 A    17 A
 -0.409  -0.403  -0.401  -0.377  -0.374  -0.359  -0.344  -0.281
 16 B    17 B    18 A    18 B    19 A    20 A    19 B    20 B
 -0.264  -0.259  -0.213
 21 B    21 A    22 A

 Beta MOs, Restricted
 -- Occupied --
-88.920 -88.920 -10.239 -10.239 -10.225 -10.225 -10.205 -10.205
  1 B     1 A     2 A     2 B     3 B     3 A     4 A     4 B
-10.203 -10.203  -7.979  -7.979  -5.944  -5.944  -5.940  -5.940
  5 B     5 A     6 B     6 A     7 B     7 A     8 B     8 A
 -5.937  -5.936  -0.900  -0.878  -0.771  -0.749  -0.737  -0.705
  9 A     9 B    10 A    10 B    11 A    12 A    11 B    12 B
 -0.604  -0.579  -0.554  -0.533  -0.527  -0.477  -0.421  -0.418
 13 A    14 A    13 B    14 B    15 A    15 B    16 A    17 A
 -0.409  -0.403  -0.401  -0.377  -0.374  -0.359  -0.344  -0.281
 16 B    17 B    18 A    18 B    19 A    20 A    19 B    20 B
 -0.264  -0.259  -0.213
 21 B    21 A    22 A

          Ground-State Mulliken Net Atomic Charges

     Atom                 Charge (a.u.)
  ----------------------------------------
      1 S                    -0.100521
      2 C                     0.008859
      3 C                    -0.350457
      4 C                     0.325776
      5 C                    -0.321508
      6 H                     0.121633
      7 C                    -0.321508
      8 S                    -0.100521
      9 C                     0.325776
     10 C                     0.008859
     11 C                    -0.350457
     12 H                     0.120155
     13 H                     0.196064
     14 H                     0.120155
     15 H                     0.196064
     16 H                     0.121633
  ----------------------------------------
  Sum of atomic charges =     0.000000

                    Cartesian Multipole Moments
 -----------------------------------------------------------------
    Charge (ESU x 10^10)
                -0.0000
    Dipole Moment (Debye)
         X       0.0000      Y       0.0000      Z      -1.0257
       Tot       1.0257
    Quadrupole Moments (Debye-Ang)
        XX     -60.8926     XY       0.3369     YY     -78.4793
        XZ       0.0000     YZ       0.0000     ZZ     -68.0525

 Total job time:  66.34s(wall), 74.11s(cpu)
        *  Thank you very much for using Q-Chem.  Have a nice day.  *
