 Q-Chem 4.4, Q-Chem, Inc., Pleasanton, CA (2016)
 Q-Chem 4.4.1 for Intel X86 EM64T Linux

User input:
--------------------------------------------------------------
$comment
<SCF Fix Strategy>{
    "current_method_id": 0,
    "methods": [
        "increase_iter",
        "rca_diis",
        "gwh",
        "gdm",
        "rca",
        "core+rca",
        "fon"
    ],
    "version": 2.0
}</SCF Fix Strategy>
$end

$molecule
 0  1
 S           1.82267924       -1.19997629        0.28714109
 C           3.20006180       -0.17260711        0.06528466
 C           2.82980603        1.10216298       -0.25610036
 C           1.41909100        1.26345446       -0.34254814
 C           0.71738150        0.10901545       -0.08456145
 H           0.93627498        2.19419272       -0.61095402
 C          -0.71741859       -0.10899254       -0.08455524
 S          -1.69429083        0.35482976        1.29526162
 C          -1.50956199       -0.66828475       -1.05994425
 C          -3.14469935       -0.19195484        0.52116074
 C          -2.88857125       -0.71564936       -0.71397448
 H          -3.65810744       -1.11339395       -1.36230090
 H           4.19429620       -0.57452886        0.18632814
 H           3.53860725        1.89960515       -0.43610218
 H          -4.09299576       -0.09235126        1.02663844
 H          -1.11591594       -1.01219422       -2.00767619
$end

$rem
         jobtype = opt
        exchange = b3lyp
           basis = 6-31++g**
  max_scf_cycles = 200
      mem_static = 100
       mem_total = 1500
   scf_algorithm = diis
       scf_guess = sad
$end

$opt
CONSTRAINT
tors 4 5 7 9 100.0
ENDCONSTRAINT
$end

--------------------------------------------------------------

   37   -1104.8371056895      8.52E-09 Convergence criterion met
 Total energy in the final basis set = -1104.8371056895
   11   -1104.8374501385      4.36E-09 Convergence criterion met
 Total energy in the final basis set = -1104.8374501385
   10   -1104.8374776926      7.53E-09 Convergence criterion met
 Total energy in the final basis set = -1104.8374776926
   10   -1104.8374915107      7.44E-09 Convergence criterion met
 Total energy in the final basis set = -1104.8374915107
   10   -1104.8374983209      5.72E-09 Convergence criterion met
 Total energy in the final basis set = -1104.8374983209
   10   -1104.8375016556      5.89E-09 Convergence criterion met
 Total energy in the final basis set = -1104.8375016556

             Standard Nuclear Orientation (Angstroms)
    I     Atom           X                Y                Z
 ----------------------------------------------------------------
    1      S       1.7675601708    -0.9777458427     0.7263135946
    2      C       3.1922573646    -0.1655582540     0.1699039356
    3      C       2.8875253031     0.8657234589    -0.6801449399
    4      C       1.4837453867     1.0067645126    -0.8941462354
    5      C       0.7281846736     0.0873011170    -0.2035781473
    6      H       1.0379230636     1.7563530053    -1.5382312601
    7      C      -0.7281846736    -0.0873011170    -0.2035781473
    8      S      -1.7675601708     0.9777458427     0.7263135946
    9      C      -1.4837453867    -1.0067645126    -0.8941462354
   10      C      -3.1922573646     0.1655582540     0.1699039356
   11      C      -2.8875253031    -0.8657234589    -0.6801449399
   12      H      -3.6360620131    -1.4989530103    -1.1427050471
   13      H       4.1689757554    -0.4953631874     0.4977282044
   14      H       3.6360620131     1.4989530103    -1.1427050471
   15      H      -4.1689757554     0.4953631874     0.4977282044
   16      H      -1.0379230636    -1.7563530053    -1.5382312601
 ----------------------------------------------------------------

    9   -1104.8375025944      5.56E-09 Convergence criterion met
 Total energy in the final basis set = -1104.8375025944
 Final energy is   -1104.83750259440
 **  OPTIMIZATION CONVERGED  **

             Orbital Energies (a.u.) and Symmetries
 --------------------------------------------------------------

 Alpha MOs, Restricted
 -- Occupied --
-88.919 -88.919 -10.236 -10.235 -10.224 -10.224 -10.204 -10.204
  1 B     1 A     2 A     2 B     3 B     3 A     4 A     4 B
-10.203 -10.203  -7.978  -7.978  -5.942  -5.942  -5.939  -5.939
  5 B     5 A     6 B     6 A     7 B     7 A     8 B     8 A
 -5.936  -5.936  -0.898  -0.877  -0.768  -0.743  -0.740  -0.705
  9 B     9 A    10 A    10 B    11 A    11 B    12 A    12 B
 -0.600  -0.569  -0.562  -0.534  -0.523  -0.478  -0.417  -0.415
 13 A    13 B    14 A    14 B    15 A    15 B    16 A    16 B
 -0.411  -0.406  -0.394  -0.375  -0.375  -0.352  -0.349  -0.264
 17 A    17 B    18 A    19 A    18 B    19 B    20 A    21 A
 -0.257  -0.250  -0.236
 20 B    22 A    21 B

 Beta MOs, Restricted
 -- Occupied --
-88.919 -88.919 -10.236 -10.235 -10.224 -10.224 -10.204 -10.204
  1 B     1 A     2 A     2 B     3 B     3 A     4 A     4 B
-10.203 -10.203  -7.978  -7.978  -5.942  -5.942  -5.939  -5.939
  5 B     5 A     6 B     6 A     7 B     7 A     8 B     8 A
 -5.936  -5.936  -0.898  -0.877  -0.768  -0.743  -0.740  -0.705
  9 B     9 A    10 A    10 B    11 A    11 B    12 A    12 B
 -0.600  -0.569  -0.562  -0.534  -0.523  -0.478  -0.417  -0.415
 13 A    13 B    14 A    14 B    15 A    15 B    16 A    16 B
 -0.411  -0.406  -0.394  -0.375  -0.375  -0.352  -0.349  -0.264
 17 A    17 B    18 A    19 A    18 B    19 B    20 A    21 A
 -0.257  -0.250  -0.236
 20 B    22 A    21 B

          Ground-State Mulliken Net Atomic Charges

     Atom                 Charge (a.u.)
  ----------------------------------------
      1 S                     0.064731
      2 C                    -0.050938
      3 C                    -0.360670
      4 C                     0.274195
      5 C                    -0.366211
      6 H                     0.132695
      7 C                    -0.366210
      8 S                     0.064731
      9 C                     0.274195
     10 C                    -0.050938
     11 C                    -0.360670
     12 H                     0.118984
     13 H                     0.187214
     14 H                     0.118984
     15 H                     0.187214
     16 H                     0.132695
  ----------------------------------------
  Sum of atomic charges =     0.000000

                    Cartesian Multipole Moments
 -----------------------------------------------------------------
    Charge (ESU x 10^10)
                 0.0000
    Dipole Moment (Debye)
         X       0.0000      Y      -0.0000      Z      -0.7095
       Tot       0.7095
    Quadrupole Moments (Debye-Ang)
        XX     -61.1244     XY       1.3344     YY     -72.2696
        XZ       0.0000     YZ       0.0000     ZZ     -74.2660

 Total job time:  55.57s(wall), 61.44s(cpu)
        *  Thank you very much for using Q-Chem.  Have a nice day.  *
