 Q-Chem 4.4, Q-Chem, Inc., Pleasanton, CA (2016)
 Q-Chem 4.4.1 for Intel X86 EM64T Linux

User input:
--------------------------------------------------------------
$molecule
 0  1
 S           1.82267924       -1.19997629        0.28714109
 C           3.20006180       -0.17260711        0.06528466
 C           2.82980603        1.10216298       -0.25610036
 C           1.41909100        1.26345446       -0.34254814
 C           0.71738150        0.10901545       -0.08456145
 H           0.93627498        2.19419272       -0.61095402
 C          -0.71741859       -0.10899254       -0.08455524
 S          -1.43968943       -1.32081617        0.95617210
 C          -1.69013927        0.52017511       -0.82593585
 C          -3.03126596       -0.93851038        0.38817833
 C          -3.00446590        0.04710533       -0.55694600
 H          -3.89296089        0.43228221       -1.03957345
 H           4.19429620       -0.57452886        0.18632814
 H           3.53860725        1.89960515       -0.43610218
 H          -3.88439697       -1.46523228        0.78746037
 H          -1.46972492        1.31638166       -1.52514927
$end

$rem
         jobtype = opt
        exchange = b3lyp
           basis = 6-31++g**
  max_scf_cycles = 75
      mem_static = 100
       mem_total = 1500
$end

$opt
CONSTRAINT
tors 4 5 7 9 30.0
ENDCONSTRAINT
$end

--------------------------------------------------------------

   26   -1104.8389879610      8.52E-09 Convergence criterion met
 Total energy in the final basis set = -1104.8389879610
   14   -1104.8395843072      4.94E-09 Convergence criterion met
 Total energy in the final basis set = -1104.8395843072
   11   -1104.8396894866      4.72E-09 Convergence criterion met
 Total energy in the final basis set = -1104.8396894866
   11   -1104.8397282947      5.80E-09 Convergence criterion met
 Total energy in the final basis set = -1104.8397282947
   14   -1104.8396901994      8.98E-09 Convergence criterion met
 Total energy in the final basis set = -1104.8396901994
   10   -1104.8396948712      4.42E-09 Convergence criterion met
 Total energy in the final basis set = -1104.8396948712

             Standard Nuclear Orientation (Angstroms)
    I     Atom           X                Y                Z
 ----------------------------------------------------------------
    1      S       1.6745401917    -0.3679513485     1.1219047988
    2      C       3.1633857860    -0.0916512559     0.2768711490
    3      C       2.9440081804     0.2662994468    -1.0276335400
    4      C       1.5591668250     0.3384032910    -1.3564004606
    5      C       0.7269734648     0.0258689143    -0.3011910080
    6      H       1.1828862081     0.6397512392    -2.3272125593
    7      C      -0.7269734648    -0.0258689143    -0.3011910080
    8      S      -1.6745401917     0.3679513485     1.1219047988
    9      C      -1.5591668250    -0.3384032910    -1.3564004606
   10      C      -3.1633857860     0.0916512559     0.2768711490
   11      C      -2.9440081804    -0.2662994468    -1.0276335400
   12      H      -3.7423333144    -0.4857279028    -1.7275087524
   13      H       4.1062991671    -0.2084489923     0.7932399007
   14      H       3.7423333144     0.4857279028    -1.7275087524
   15      H      -4.1062991671     0.2084489923     0.7932399007
   16      H      -1.1828862081    -0.6397512392    -2.3272125593
 ----------------------------------------------------------------

    8   -1104.8396957174      6.04E-09 Convergence criterion met
 Total energy in the final basis set = -1104.8396957174
 Final energy is   -1104.83969571738
 **  OPTIMIZATION CONVERGED  **

             Orbital Energies (a.u.) and Symmetries
 --------------------------------------------------------------

 Alpha MOs, Restricted
 -- Occupied --
-88.920 -88.920 -10.238 -10.238 -10.225 -10.225 -10.205 -10.205
  1 B     1 A     2 A     2 B     3 B     3 A     4 A     4 B
-10.203 -10.203  -7.979  -7.979  -5.943  -5.943  -5.940  -5.940
  5 B     5 A     6 B     6 A     7 B     7 A     8 B     8 A
 -5.936  -5.936  -0.900  -0.878  -0.771  -0.748  -0.738  -0.705
  9 A     9 B    10 A    10 B    11 A    12 A    11 B    12 B
 -0.603  -0.578  -0.555  -0.533  -0.526  -0.477  -0.421  -0.417
 13 A    14 A    13 B    14 B    15 A    15 B    16 A    17 A
 -0.409  -0.403  -0.399  -0.376  -0.374  -0.357  -0.346  -0.277
 16 B    17 B    18 A    18 B    19 A    20 A    19 B    20 B
 -0.263  -0.260  -0.216
 21 B    21 A    22 A

 Beta MOs, Restricted
 -- Occupied --
-88.920 -88.920 -10.238 -10.238 -10.225 -10.225 -10.205 -10.205
  1 B     1 A     2 A     2 B     3 B     3 A     4 A     4 B
-10.203 -10.203  -7.979  -7.979  -5.943  -5.943  -5.940  -5.940
  5 B     5 A     6 B     6 A     7 B     7 A     8 B     8 A
 -5.936  -5.936  -0.900  -0.878  -0.771  -0.748  -0.738  -0.705
  9 A     9 B    10 A    10 B    11 A    12 A    11 B    12 B
 -0.603  -0.578  -0.555  -0.533  -0.526  -0.477  -0.421  -0.417
 13 A    14 A    13 B    14 B    15 A    15 B    16 A    17 A
 -0.409  -0.403  -0.399  -0.376  -0.374  -0.357  -0.346  -0.277
 16 B    17 B    18 A    18 B    19 A    20 A    19 B    20 B
 -0.263  -0.260  -0.216
 21 B    21 A    22 A

          Ground-State Mulliken Net Atomic Charges

     Atom                 Charge (a.u.)
  ----------------------------------------
      1 S                    -0.060628
      2 C                    -0.004716
      3 C                    -0.346609
      4 C                     0.300787
      5 C                    -0.336338
      6 H                     0.133236
      7 C                    -0.336338
      8 S                    -0.060628
      9 C                     0.300787
     10 C                    -0.004716
     11 C                    -0.346609
     12 H                     0.120275
     13 H                     0.193992
     14 H                     0.120275
     15 H                     0.193992
     16 H                     0.133236
  ----------------------------------------
  Sum of atomic charges =     0.000000

                    Cartesian Multipole Moments
 -----------------------------------------------------------------
    Charge (ESU x 10^10)
                -0.0000
    Dipole Moment (Debye)
         X      -0.0000      Y      -0.0000      Z      -1.0009
       Tot       1.0009
    Quadrupole Moments (Debye-Ang)
        XX     -60.9200     XY       0.5381     YY     -78.0357
        XZ       0.0000     YZ      -0.0000     ZZ     -68.4772

 Total job time:  55.41s(wall), 61.51s(cpu)
        *  Thank you very much for using Q-Chem.  Have a nice day.  *
