 Q-Chem 4.4, Q-Chem, Inc., Pleasanton, CA (2016)
 Q-Chem 4.4.1 for Intel X86 EM64T Linux

User input:
--------------------------------------------------------------
$comment
<SCF Fix Strategy>{
    "current_method_id": 0,
    "methods": [
        "increase_iter",
        "rca_diis",
        "gwh",
        "gdm",
        "rca",
        "core+rca",
        "fon"
    ],
    "version": 2.0
}</SCF Fix Strategy>
$end

$molecule
 0  1
 S           1.82267924       -1.19997629        0.28714109
 C           3.20006180       -0.17260711        0.06528466
 C           2.82980603        1.10216298       -0.25610036
 C           1.41909100        1.26345446       -0.34254814
 C           0.71738150        0.10901545       -0.08456145
 H           0.93627498        2.19419272       -0.61095402
 C          -0.71741859       -0.10899254       -0.08455524
 S          -1.47783433       -1.06983437       -1.33829203
 C          -1.66438242        0.35070511        0.80066804
 C          -3.04464461       -0.85048905       -0.63197507
 C          -2.98656773       -0.07066005        0.48780633
 H          -3.85578822        0.18769394        1.07807983
 H           4.19429620       -0.57452886        0.18632814
 H           3.53860725        1.89960515       -0.43610218
 H          -3.90792635       -1.31042928       -1.08792931
 H          -1.41445644        0.95272803        1.66468897
$end

$rem
         jobtype = opt
        exchange = b3lyp
           basis = 6-31++g**
  max_scf_cycles = 200
      mem_static = 100
       mem_total = 1500
   scf_algorithm = diis
       scf_guess = sad
$end

$opt
CONSTRAINT
tors 4 5 7 9 -70.0
ENDCONSTRAINT
$end

--------------------------------------------------------------

  111   -1104.8375432592      6.95E-09 Convergence criterion met
 Total energy in the final basis set = -1104.8375432592
   10   -1104.8378936035      8.73E-09 Convergence criterion met
 Total energy in the final basis set = -1104.8378936035
   10   -1104.8379270352      7.32E-09 Convergence criterion met
 Total energy in the final basis set = -1104.8379270352
   10   -1104.8379382199      6.40E-09 Convergence criterion met
 Total energy in the final basis set = -1104.8379382199
   10   -1104.8379420075      4.29E-09 Convergence criterion met
 Total energy in the final basis set = -1104.8379420075
   10   -1104.8379442201      5.21E-09 Convergence criterion met
 Total energy in the final basis set = -1104.8379442201

             Standard Nuclear Orientation (Angstroms)
    I     Atom           X                Y                Z
 ----------------------------------------------------------------
    1      S       1.7044239890     0.7130130988     0.9686161701
    2      C       3.1709261757     0.1168226495     0.2644518534
    3      C       2.9272379730    -0.6231517909    -0.8630312452
    4      C       1.5362796266    -0.7245929066    -1.1650336618
    5      C       0.7305911735    -0.0483155815    -0.2772436822
    6      H       1.1333224597    -1.2838914056    -2.0017794632
    7      C      -0.7305911735     0.0483155815    -0.2772436822
    8      S      -1.7044239890    -0.7130130988     0.9686161701
    9      C      -1.5362796266     0.7245929066    -1.1650336618
   10      C      -3.1709261757    -0.1168226495     0.2644518534
   11      C      -2.9272379730     0.6231517909    -0.8630312452
   12      H      -3.7096130116     1.0878104262    -1.4522784458
   13      H       4.1240576915     0.3477874488     0.7206934345
   14      H       3.7096130116    -1.0878104262    -1.4522784458
   15      H      -4.1240576915    -0.3477874488     0.7206934345
   16      H      -1.1333224597     1.2838914056    -2.0017794632
 ----------------------------------------------------------------

    9   -1104.8379446595      4.68E-09 Convergence criterion met
 Total energy in the final basis set = -1104.8379446595
 Final energy is   -1104.83794465951
 **  OPTIMIZATION CONVERGED  **

             Orbital Energies (a.u.) and Symmetries
 --------------------------------------------------------------

 Alpha MOs, Restricted
 -- Occupied --
-88.919 -88.919 -10.236 -10.236 -10.225 -10.225 -10.204 -10.204
  1 B     1 A     2 A     2 B     3 B     3 A     4 A     4 B
-10.203 -10.203  -7.978  -7.978  -5.942  -5.942  -5.939  -5.939
  5 B     5 A     6 B     6 A     7 B     7 A     8 B     8 A
 -5.936  -5.936  -0.898  -0.877  -0.769  -0.744  -0.740  -0.705
  9 B     9 A    10 A    10 B    11 A    12 A    11 B    12 B
 -0.601  -0.570  -0.562  -0.534  -0.523  -0.477  -0.418  -0.414
 13 A    14 A    13 B    14 B    15 A    15 B    16 A    17 A
 -0.412  -0.405  -0.394  -0.375  -0.374  -0.352  -0.349  -0.264
 16 B    17 B    18 A    18 B    19 A    20 A    19 B    21 A
 -0.258  -0.256  -0.231
 20 B    21 B    22 A

 Beta MOs, Restricted
 -- Occupied --
-88.919 -88.919 -10.236 -10.236 -10.225 -10.225 -10.204 -10.204
  1 B     1 A     2 A     2 B     3 B     3 A     4 A     4 B
-10.203 -10.203  -7.978  -7.978  -5.942  -5.942  -5.939  -5.939
  5 B     5 A     6 B     6 A     7 B     7 A     8 B     8 A
 -5.936  -5.936  -0.898  -0.877  -0.769  -0.744  -0.740  -0.705
  9 B     9 A    10 A    10 B    11 A    12 A    11 B    12 B
 -0.601  -0.570  -0.562  -0.534  -0.523  -0.477  -0.418  -0.414
 13 A    14 A    13 B    14 B    15 A    15 B    16 A    17 A
 -0.412  -0.405  -0.394  -0.375  -0.374  -0.352  -0.349  -0.264
 16 B    17 B    18 A    18 B    19 A    20 A    19 B    21 A
 -0.258  -0.256  -0.231
 20 B    21 B    22 A

          Ground-State Mulliken Net Atomic Charges

     Atom                 Charge (a.u.)
  ----------------------------------------
      1 S                     0.034450
      2 C                    -0.035200
      3 C                    -0.422603
      4 C                     0.339393
      5 C                    -0.361286
      6 H                     0.139131
      7 C                    -0.361286
      8 S                     0.034450
      9 C                     0.339393
     10 C                    -0.035200
     11 C                    -0.422603
     12 H                     0.117064
     13 H                     0.189052
     14 H                     0.117064
     15 H                     0.189052
     16 H                     0.139131
  ----------------------------------------
  Sum of atomic charges =    -0.000000

                    Cartesian Multipole Moments
 -----------------------------------------------------------------
    Charge (ESU x 10^10)
                -0.0000
    Dipole Moment (Debye)
         X      -0.0000      Y      -0.0000      Z      -0.8414
       Tot       0.8414
    Quadrupole Moments (Debye-Ang)
        XX     -61.0534     XY      -1.3370     YY     -75.2666
        XZ      -0.0000     YZ       0.0000     ZZ     -71.1637

 Total job time:  77.27s(wall), 87.62s(cpu)
        *  Thank you very much for using Q-Chem.  Have a nice day.  *
