 Q-Chem 4.4, Q-Chem, Inc., Pleasanton, CA (2016)
 Q-Chem 4.4.1 for Intel X86 EM64T Linux

User input:
--------------------------------------------------------------
$molecule
 0  1
 S           1.82267924       -1.19997629        0.28714109
 C           3.20006180       -0.17260711        0.06528466
 C           2.82980603        1.10216298       -0.25610036
 C           1.41909100        1.26345446       -0.34254814
 C           0.71738150        0.10901545       -0.08456145
 H           0.93627498        2.19419272       -0.61095402
 C          -0.71741859       -0.10899254       -0.08455524
 S          -1.62826584       -0.07978980       -1.58215650
 C          -1.55793391       -0.34987115        0.97713877
 C          -3.11098192       -0.41389936       -0.75040275
 C          -2.91799000       -0.52199515        0.59736800
 H          -3.71664854       -0.72803510        1.29765788
 H           4.19429620       -0.57452886        0.18632814
 H           3.53860725        1.89960515       -0.43610218
 H          -4.02971430       -0.50889909       -1.30861464
 H          -1.20497993       -0.42591337        1.99746607
$end

$rem
         jobtype = opt
        exchange = b3lyp
           basis = 6-31++g**
  max_scf_cycles = 75
      mem_static = 100
       mem_total = 1500
$end

$opt
CONSTRAINT
tors 4 5 7 9 -110.0
ENDCONSTRAINT
$end

--------------------------------------------------------------

   45   -1104.8376763004      5.82E-09 Convergence criterion met
 Total energy in the final basis set = -1104.8376763004
   11   -1104.8380940456      7.97E-09 Convergence criterion met
 Total energy in the final basis set = -1104.8380940456
   10   -1104.8381465911      7.24E-09 Convergence criterion met
 Total energy in the final basis set = -1104.8381465911
   11   -1104.8381734905      3.30E-09 Convergence criterion met
 Total energy in the final basis set = -1104.8381734905
   10   -1104.8381824651      4.06E-09 Convergence criterion met
 Total energy in the final basis set = -1104.8381824651
   10   -1104.8381887090      6.30E-09 Convergence criterion met
 Total energy in the final basis set = -1104.8381887090
    9   -1104.8381898860      5.74E-09 Convergence criterion met
 Total energy in the final basis set = -1104.8381898860

             Standard Nuclear Orientation (Angstroms)
    I     Atom           X                Y                Z
 ----------------------------------------------------------------
    1      S       1.7926018704    -1.0395856761    -0.6488771573
    2      C       3.1990144866    -0.1644518367    -0.1420170006
    3      C       2.8669909298     0.9434415376     0.5937730478
    4      C       1.4581828752     1.0906557599     0.7640600828
    5      C       0.7251817149     0.1011465832     0.1487422677
    6      H       0.9938314854     1.8909442326     1.3292383153
    7      C      -0.7251817149    -0.1011465832     0.1487422677
    8      S      -1.7926018704     1.0395856761    -0.6488771573
    9      C      -1.4581828752    -1.0906557599     0.7640600828
   10      C      -3.1990144866     0.1644518367    -0.1420170006
   11      C      -2.8669909298    -0.9434415376     0.5937730478
   12      H      -3.6000987881    -1.6265614961     1.0075565354
   13      H       4.1850515659    -0.5157602760    -0.4147503796
   14      H       3.6000987881     1.6265614961     1.0075565354
   15      H      -4.1850515659     0.5157602760    -0.4147503796
   16      H      -0.9938314854    -1.8909442326     1.3292383153
 ----------------------------------------------------------------

    8   -1104.8381901322      5.23E-09 Convergence criterion met
 Total energy in the final basis set = -1104.8381901322
 Final energy is   -1104.83819013223
 **  OPTIMIZATION CONVERGED  **

             Orbital Energies (a.u.) and Symmetries
 --------------------------------------------------------------

 Alpha MOs, Restricted
 -- Occupied --
-88.919 -88.919 -10.236 -10.236 -10.224 -10.224 -10.204 -10.204
  1 B     1 A     2 A     2 B     3 B     3 A     4 A     4 B
-10.203 -10.203  -7.979  -7.979  -5.943  -5.943  -5.939  -5.939
  5 B     5 A     6 B     6 A     7 B     7 A     8 B     8 A
 -5.936  -5.936  -0.898  -0.878  -0.769  -0.744  -0.740  -0.705
  9 B     9 A    10 A    10 B    11 A    11 B    12 A    12 B
 -0.601  -0.572  -0.560  -0.534  -0.523  -0.478  -0.417  -0.417
 13 A    13 B    14 A    14 B    15 A    15 B    16 A    16 B
 -0.410  -0.406  -0.395  -0.376  -0.375  -0.353  -0.348  -0.264
 17 A    17 B    18 A    19 A    18 B    19 B    20 A    21 A
 -0.258  -0.257  -0.229
 20 B    22 A    21 B

 Beta MOs, Restricted
 -- Occupied --
-88.919 -88.919 -10.236 -10.236 -10.224 -10.224 -10.204 -10.204
  1 B     1 A     2 A     2 B     3 B     3 A     4 A     4 B
-10.203 -10.203  -7.979  -7.979  -5.943  -5.943  -5.939  -5.939
  5 B     5 A     6 B     6 A     7 B     7 A     8 B     8 A
 -5.936  -5.936  -0.898  -0.878  -0.769  -0.744  -0.740  -0.705
  9 B     9 A    10 A    10 B    11 A    11 B    12 A    12 B
 -0.601  -0.572  -0.560  -0.534  -0.523  -0.478  -0.417  -0.417
 13 A    13 B    14 A    14 B    15 A    15 B    16 A    16 B
 -0.410  -0.406  -0.395  -0.376  -0.375  -0.353  -0.348  -0.264
 17 A    17 B    18 A    19 A    18 B    19 B    20 A    21 A
 -0.258  -0.257  -0.229
 20 B    22 A    21 B

          Ground-State Mulliken Net Atomic Charges

     Atom                 Charge (a.u.)
  ----------------------------------------
      1 S                     0.060636
      2 C                    -0.050092
      3 C                    -0.364309
      4 C                     0.241226
      5 C                    -0.328340
      6 H                     0.135282
      7 C                    -0.328340
      8 S                     0.060636
      9 C                     0.241226
     10 C                    -0.050092
     11 C                    -0.364309
     12 H                     0.118110
     13 H                     0.187487
     14 H                     0.118110
     15 H                     0.187487
     16 H                     0.135282
  ----------------------------------------
  Sum of atomic charges =    -0.000000

                    Cartesian Multipole Moments
 -----------------------------------------------------------------
    Charge (ESU x 10^10)
                -0.0000
    Dipole Moment (Debye)
         X      -0.0000      Y       0.0000      Z       0.6586
       Tot       0.6586
    Quadrupole Moments (Debye-Ang)
        XX     -61.1596     XY       1.2971     YY     -71.2898
        XZ       0.0000     YZ       0.0000     ZZ     -75.3359

 Total job time:  64.56s(wall), 72.13s(cpu)
        *  Thank you very much for using Q-Chem.  Have a nice day.  *
