 Q-Chem 4.4, Q-Chem, Inc., Pleasanton, CA (2016)
 Q-Chem 4.4.1 for Intel X86 EM64T Linux

User input:
--------------------------------------------------------------
$molecule
 0  1
 S           1.82267924       -1.19997629        0.28714109
 C           3.20006180       -0.17260711        0.06528466
 C           2.82980603        1.10216298       -0.25610036
 C           1.41909100        1.26345446       -0.34254814
 C           0.71738150        0.10901545       -0.08456145
 H           0.93627498        2.19419272       -0.61095402
 C          -0.71741859       -0.10899254       -0.08455524
 S          -1.38345237       -1.69095486        0.27195461
 C          -1.73036281        0.78491651       -0.34253447
 C          -3.00527096       -1.10960263        0.08858478
 C          -3.02992614        0.21467851       -0.24471410
 H          -3.94431988        0.77031485       -0.40554376
 H           4.19429620       -0.57452886        0.18632814
 H           3.53860725        1.89960515       -0.43610218
 H          -3.83631452       -1.78169832        0.23807941
 H          -1.54728804        1.82688357       -0.57104055
$end

$rem
         jobtype = opt
        exchange = b3lyp
           basis = 6-31++g**
  max_scf_cycles = 75
      mem_static = 100
       mem_total = 1500
$end

$opt
CONSTRAINT
tors 4 5 7 9 0.0
ENDCONSTRAINT
$end

--------------------------------------------------------------

   47   -1104.8385083812      8.93E-09 Convergence criterion met
 Total energy in the final basis set = -1104.8385083812
   12   -1104.8389773410      2.10E-09 Convergence criterion met
 Total energy in the final basis set = -1104.8389773410
   10   -1104.8390032051      7.04E-09 Convergence criterion met
 Total energy in the final basis set = -1104.8390032051
    9   -1104.8390085537      6.84E-09 Convergence criterion met
 Total energy in the final basis set = -1104.8390085537
    9   -1104.8390098359      3.58E-09 Convergence criterion met
 Total energy in the final basis set = -1104.8390098359

             Standard Nuclear Orientation (Angstroms)
    I     Atom           X                Y                Z
 ----------------------------------------------------------------
    1      S       1.6648332643    -0.0011520911     1.1696741909
    2      C       3.1625569211    -0.0064153116     0.2959718847
    3      C       2.9534139882    -0.0087646974    -1.0582403825
    4      C       1.5727758933    -0.0064616447    -1.4057888797
    5      C       0.7273500270    -0.0029881681    -0.3130555971
    6      H       1.2148489765    -0.0079301278    -2.4286540971
    7      C      -0.7273500270     0.0029881681    -0.3130555971
    8      S      -1.6648332643     0.0011520911     1.1696741909
    9      C      -1.5727758933     0.0064616447    -1.4057888797
   10      C      -3.1625569211     0.0064153116     0.2959718847
   11      C      -2.9534139882     0.0087646974    -1.0582403825
   12      H      -3.7575565811     0.0116455741    -1.7853140624
   13      H       4.1000916615    -0.0077383959     0.8343621522
   14      H       3.7575565811    -0.0116455741    -1.7853140624
   15      H      -4.1000916615     0.0077383959     0.8343621522
   16      H      -1.2148489765     0.0079301278    -2.4286540971
 ----------------------------------------------------------------

    8   -1104.8390102879      5.53E-09 Convergence criterion met
 Total energy in the final basis set = -1104.8390102879
 Final energy is   -1104.83901028793
 **  OPTIMIZATION CONVERGED  **

             Orbital Energies (a.u.) and Symmetries
 --------------------------------------------------------------

 Alpha MOs, Restricted
 -- Occupied --
-88.920 -88.920 -10.240 -10.240 -10.225 -10.225 -10.205 -10.205
  1 B     1 A     2 A     2 B     3 B     3 A     4 B     4 A
-10.203 -10.203  -7.980  -7.980  -5.944  -5.944  -5.940  -5.940
  5 B     5 A     6 B     6 A     7 B     7 A     8 B     8 A
 -5.937  -5.937  -0.901  -0.878  -0.772  -0.750  -0.737  -0.705
  9 A     9 B    10 A    10 B    11 A    12 A    11 B    12 B
 -0.604  -0.580  -0.553  -0.533  -0.528  -0.477  -0.422  -0.419
 13 A    14 A    13 B    14 B    15 A    15 B    16 A    17 A
 -0.407  -0.403  -0.402  -0.377  -0.374  -0.360  -0.343  -0.284
 16 B    17 B    18 A    18 B    19 A    20 A    19 B    20 B
 -0.266  -0.257  -0.211
 21 B    21 A    22 A

 Beta MOs, Restricted
 -- Occupied --
-88.920 -88.920 -10.240 -10.240 -10.225 -10.225 -10.205 -10.205
  1 B     1 A     2 A     2 B     3 B     3 A     4 B     4 A
-10.203 -10.203  -7.980  -7.980  -5.944  -5.944  -5.940  -5.940
  5 B     5 A     6 B     6 A     7 B     7 A     8 B     8 A
 -5.937  -5.937  -0.901  -0.878  -0.772  -0.750  -0.737  -0.705
  9 A     9 B    10 A    10 B    11 A    12 A    11 B    12 B
 -0.604  -0.580  -0.553  -0.533  -0.528  -0.477  -0.422  -0.419
 13 A    14 A    13 B    14 B    15 A    15 B    16 A    17 A
 -0.407  -0.403  -0.402  -0.377  -0.374  -0.360  -0.343  -0.284
 16 B    17 B    18 A    18 B    19 A    20 A    19 B    20 B
 -0.266  -0.257  -0.211
 21 B    21 A    22 A

          Ground-State Mulliken Net Atomic Charges

     Atom                 Charge (a.u.)
  ----------------------------------------
      1 S                    -0.160529
      2 C                     0.027010
      3 C                    -0.502329
      4 C                     0.415344
      5 C                    -0.203048
      6 H                     0.102971
      7 C                    -0.203048
      8 S                    -0.160529
      9 C                     0.415344
     10 C                     0.027010
     11 C                    -0.502329
     12 H                     0.117216
     13 H                     0.203365
     14 H                     0.117216
     15 H                     0.203365
     16 H                     0.102971
  ----------------------------------------
  Sum of atomic charges =    -0.000000

                    Cartesian Multipole Moments
 -----------------------------------------------------------------
    Charge (ESU x 10^10)
                -0.0000
    Dipole Moment (Debye)
         X       0.0000      Y       0.0000      Z      -1.0459
       Tot       1.0459
    Quadrupole Moments (Debye-Ang)
        XX     -60.9222     XY      -0.0395     YY     -78.9298
        XZ      -0.0000     YZ       0.0000     ZZ     -67.6119

 Total job time:  52.49s(wall), 58.89s(cpu)
        *  Thank you very much for using Q-Chem.  Have a nice day.  *
