 Q-Chem 4.4, Q-Chem, Inc., Pleasanton, CA (2016)
 Q-Chem 4.4.1 for Intel X86 EM64T Linux

User input:
--------------------------------------------------------------
$comment
<SCF Fix Strategy>{
    "current_method_id": 0,
    "methods": [
        "increase_iter",
        "rca_diis",
        "gwh",
        "gdm",
        "rca",
        "core+rca",
        "fon"
    ],
    "version": 2.0
}</SCF Fix Strategy>
$end

$molecule
 0  1
 S           1.82267924       -1.19997629        0.28714109
 C           3.20006180       -0.17260711        0.06528466
 C           2.82980603        1.10216298       -0.25610036
 C           1.41909100        1.26345446       -0.34254814
 C           0.71738150        0.10901545       -0.08456145
 H           0.93627498        2.19419272       -0.61095402
 C          -0.71741859       -0.10899254       -0.08455524
 S          -1.79170771        0.99590704       -0.92026143
 C          -1.44176620       -1.11443183        0.51218177
 C          -3.18448565        0.06986689       -0.46803395
 C          -2.84369246       -1.01098636        0.29422114
 H          -3.56626016       -1.71782036        0.68022045
 H           4.19429620       -0.57452886        0.18632814
 H           3.53860725        1.89960515       -0.43610218
 H          -4.16508757        0.38206263       -0.79306987
 H          -0.97827964       -1.91794742        1.06982831
$end

$rem
         jobtype = opt
        exchange = b3lyp
           basis = 6-31++g**
  max_scf_cycles = 200
      mem_static = 100
       mem_total = 1500
   scf_algorithm = diis
       scf_guess = sad
$end

$opt
CONSTRAINT
tors 4 5 7 9 -160.0
ENDCONSTRAINT
$end

--------------------------------------------------------------

   33   -1104.8403483604      7.40E-09 Convergence criterion met
 Total energy in the final basis set = -1104.8403483604
   11   -1104.8406592436      4.49E-09 Convergence criterion met
 Total energy in the final basis set = -1104.8406592436
   10   -1104.8406959757      1.73E-09 Convergence criterion met
 Total energy in the final basis set = -1104.8406959757
   10   -1104.8407097105      1.83E-09 Convergence criterion met
 Total energy in the final basis set = -1104.8407097105
    9   -1104.8407114499      5.55E-09 Convergence criterion met
 Total energy in the final basis set = -1104.8407114499

             Standard Nuclear Orientation (Angstroms)
    I     Atom           X                Y                Z
 ----------------------------------------------------------------
    1      S       1.8492099311    -1.1926772688    -0.2227348950
    2      C       3.2094433136    -0.1278369667    -0.0612631996
    3      C       2.8146602597     1.1633199164     0.1704580188
    4      C       1.3981508691     1.3056832788     0.2333135127
    5      C       0.7163583751     0.1204589304     0.0471555234
    6      H       0.8972411790     2.2470697856     0.4302469247
    7      C      -0.7163583751    -0.1204589304     0.0471555234
    8      S      -1.8492099311     1.1926772688    -0.2227348950
    9      C      -1.3981508691    -1.3056832788     0.2333135127
   10      C      -3.2094433136     0.1278369667    -0.0612631996
   11      C      -2.8146602597    -1.1633199164     0.1704580188
   12      H      -3.5095182711    -1.9849713888     0.3011059219
   13      H       4.2136509344    -0.5196446073    -0.1473448858
   14      H       3.5095182711     1.9849713888     0.3011059219
   15      H      -4.2136509344     0.5196446073    -0.1473448858
   16      H      -0.8972411790    -2.2470697856     0.4302469247
 ----------------------------------------------------------------

    9   -1104.8407124139      6.79E-09 Convergence criterion met
 Total energy in the final basis set = -1104.8407124139
 Final energy is   -1104.84071241388
 **  OPTIMIZATION CONVERGED  **

             Orbital Energies (a.u.) and Symmetries
 --------------------------------------------------------------

 Alpha MOs, Restricted
 -- Occupied --
-88.920 -88.920 -10.239 -10.239 -10.225 -10.225 -10.205 -10.205
  1 A     1 B     2 A     2 B     3 B     3 A     4 A     4 B
-10.203 -10.203  -7.979  -7.979  -5.943  -5.943  -5.940  -5.940
  5 B     5 A     6 A     6 B     7 A     7 B     8 B     8 A
 -5.936  -5.936  -0.900  -0.878  -0.772  -0.749  -0.737  -0.706
  9 B     9 A    10 A    10 B    11 A    11 B    12 A    12 B
 -0.604  -0.581  -0.552  -0.534  -0.527  -0.478  -0.420  -0.418
 13 A    13 B    14 A    14 B    15 A    15 B    16 B    16 A
 -0.408  -0.405  -0.401  -0.378  -0.374  -0.357  -0.344  -0.281
 17 A    17 B    18 A    19 A    18 B    19 B    20 A    21 A
 -0.264  -0.259  -0.213
 20 B    22 A    21 B

 Beta MOs, Restricted
 -- Occupied --
-88.920 -88.920 -10.239 -10.239 -10.225 -10.225 -10.205 -10.205
  1 A     1 B     2 A     2 B     3 B     3 A     4 A     4 B
-10.203 -10.203  -7.979  -7.979  -5.943  -5.943  -5.940  -5.940
  5 B     5 A     6 A     6 B     7 A     7 B     8 B     8 A
 -5.936  -5.936  -0.900  -0.878  -0.772  -0.749  -0.737  -0.706
  9 B     9 A    10 A    10 B    11 A    11 B    12 A    12 B
 -0.604  -0.581  -0.552  -0.534  -0.527  -0.478  -0.420  -0.418
 13 A    13 B    14 A    14 B    15 A    15 B    16 B    16 A
 -0.408  -0.405  -0.401  -0.378  -0.374  -0.357  -0.344  -0.281
 17 A    17 B    18 A    19 A    18 B    19 B    20 A    21 A
 -0.264  -0.259  -0.213
 20 B    22 A    21 B

          Ground-State Mulliken Net Atomic Charges

     Atom                 Charge (a.u.)
  ----------------------------------------
      1 S                    -0.104328
      2 C                     0.015541
      3 C                    -0.354045
      4 C                     0.368974
      5 C                    -0.365517
      6 H                     0.122905
      7 C                    -0.365517
      8 S                    -0.104328
      9 C                     0.368974
     10 C                     0.015541
     11 C                    -0.354045
     12 H                     0.119893
     13 H                     0.196577
     14 H                     0.119893
     15 H                     0.196577
     16 H                     0.122905
  ----------------------------------------
  Sum of atomic charges =     0.000000

                    Cartesian Multipole Moments
 -----------------------------------------------------------------
    Charge (ESU x 10^10)
                 0.0000
    Dipole Moment (Debye)
         X      -0.0000      Y       0.0000      Z       0.2254
       Tot       0.2254
    Quadrupole Moments (Debye-Ang)
        XX     -61.1453     XY       1.5997     YY     -68.3196
        XZ       0.0000     YZ      -0.0000     ZZ     -78.5772

 Total job time:  47.21s(wall), 52.30s(cpu)
        *  Thank you very much for using Q-Chem.  Have a nice day.  *
