 Q-Chem 4.4, Q-Chem, Inc., Pleasanton, CA (2016)
 Q-Chem 4.4.1 for Intel X86 EM64T Linux

User input:
--------------------------------------------------------------
$comment
<SCF Fix Strategy>{
    "current_method_id": 0,
    "methods": [
        "increase_iter",
        "rca_diis",
        "gwh",
        "gdm",
        "rca",
        "core+rca",
        "fon"
    ],
    "version": 2.0
}</SCF Fix Strategy>
$end

$molecule
 0  1
 S           1.82267924       -1.19997629        0.28714109
 C           3.20006180       -0.17260711        0.06528466
 C           2.82980603        1.10216298       -0.25610036
 C           1.41909100        1.26345446       -0.34254814
 C           0.71738150        0.10901545       -0.08456145
 H           0.93627498        2.19419272       -0.61095402
 C          -0.71741859       -0.10899254       -0.08455524
 S          -1.75970034        0.78530831        1.00502257
 C          -1.46337876       -0.97222962       -0.85270096
 C          -3.17325963       -0.00399177        0.38797639
 C          -2.85871081       -0.91216947       -0.58243016
 H          -3.59745174       -1.51258643       -1.09670164
 H           4.19429620       -0.57452886        0.18632814
 H           3.53860725        1.89960515       -0.43610218
 H          -4.14534408        0.25216749        0.78056893
 H          -1.02465541       -1.61280579       -1.60676378
$end

$rem
         jobtype = opt
        exchange = b3lyp
           basis = 6-31++g**
  max_scf_cycles = 200
      mem_static = 100
       mem_total = 1500
   scf_algorithm = diis
       scf_guess = sad
$end

$opt
CONSTRAINT
tors 4 5 7 9 120.0
ENDCONSTRAINT
$end

--------------------------------------------------------------

   76   -1104.8387091525      8.87E-09 Convergence criterion met
 Total energy in the final basis set = -1104.8387091525
   11   -1104.8389578135      4.11E-09 Convergence criterion met
 Total energy in the final basis set = -1104.8389578135
   10   -1104.8390035752      8.33E-09 Convergence criterion met
 Total energy in the final basis set = -1104.8390035752
   11   -1104.8390536155      6.65E-09 Convergence criterion met
 Total energy in the final basis set = -1104.8390536155
   10   -1104.8390632789      6.79E-09 Convergence criterion met
 Total energy in the final basis set = -1104.8390632789
    9   -1104.8390663032      8.43E-09 Convergence criterion met
 Total energy in the final basis set = -1104.8390663032

             Standard Nuclear Orientation (Angstroms)
    I     Atom           X                Y                Z
 ----------------------------------------------------------------
    1      S       1.8074204936    -1.0931417526     0.5489016757
    2      C       3.2022227998    -0.1690708162     0.0973923835
    3      C       2.8530856629     0.9986393911    -0.5297776337
    4      C       1.4415688945     1.1527422220    -0.6644338948
    5      C       0.7226446428     0.1072141174    -0.1282482770
    6      H       0.9659610812     1.9962789118    -1.1520853697
    7      C      -0.7226446428    -0.1072141174    -0.1282482770
    8      S      -1.8074204936     1.0931417526     0.5489016757
    9      C      -1.4415688945    -1.1527422220    -0.6644338948
   10      C      -3.2022227998     0.1690708162     0.0973923835
   11      C      -2.8530856629    -0.9986393911    -0.5297776337
   12      H      -3.5766573711    -1.7192149806    -0.8939005790
   13      H       4.1938292785    -0.5387838023     0.3206524623
   14      H       3.5766573711     1.7192149806    -0.8939005790
   15      H      -4.1938292785     0.5387838023     0.3206524623
   16      H      -0.9659610812    -1.9962789118    -1.1520853697
 ----------------------------------------------------------------

    8   -1104.8390665885      9.29E-09 Convergence criterion met
 Total energy in the final basis set = -1104.8390665885
 Final energy is   -1104.83906658852
 **  OPTIMIZATION CONVERGED  **

             Orbital Energies (a.u.) and Symmetries
 --------------------------------------------------------------

 Alpha MOs, Restricted
 -- Occupied --
-88.920 -88.920 -10.237 -10.237 -10.224 -10.224 -10.204 -10.204
  1 B     1 A     2 A     2 B     3 B     3 A     4 A     4 B
-10.203 -10.203  -7.979  -7.979  -5.943  -5.943  -5.939  -5.939
  5 B     5 A     6 B     6 A     7 B     7 A     8 B     8 A
 -5.936  -5.936  -0.899  -0.878  -0.769  -0.745  -0.739  -0.705
  9 B     9 A    10 A    10 B    11 A    11 B    12 A    12 B
 -0.602  -0.574  -0.558  -0.534  -0.524  -0.478  -0.418  -0.417
 13 A    13 B    14 A    14 B    15 A    15 B    16 B    16 A
 -0.409  -0.405  -0.396  -0.376  -0.374  -0.354  -0.347  -0.265
 17 A    17 B    18 A    19 A    18 B    19 B    20 A    21 A
 -0.262  -0.259  -0.225
 22 A    20 B    21 B

 Beta MOs, Restricted
 -- Occupied --
-88.920 -88.920 -10.237 -10.237 -10.224 -10.224 -10.204 -10.204
  1 B     1 A     2 A     2 B     3 B     3 A     4 A     4 B
-10.203 -10.203  -7.979  -7.979  -5.943  -5.943  -5.939  -5.939
  5 B     5 A     6 B     6 A     7 B     7 A     8 B     8 A
 -5.936  -5.936  -0.899  -0.878  -0.769  -0.745  -0.739  -0.705
  9 B     9 A    10 A    10 B    11 A    11 B    12 A    12 B
 -0.602  -0.574  -0.558  -0.534  -0.524  -0.478  -0.418  -0.417
 13 A    13 B    14 A    14 B    15 A    15 B    16 B    16 A
 -0.409  -0.405  -0.396  -0.376  -0.374  -0.354  -0.347  -0.265
 17 A    17 B    18 A    19 A    18 B    19 B    20 A    21 A
 -0.262  -0.259  -0.225
 22 A    20 B    21 B

          Ground-State Mulliken Net Atomic Charges

     Atom                 Charge (a.u.)
  ----------------------------------------
      1 S                     0.043007
      2 C                    -0.041481
      3 C                    -0.388387
      4 C                     0.233696
      5 C                    -0.288141
      6 H                     0.136914
      7 C                    -0.288141
      8 S                     0.043007
      9 C                     0.233696
     10 C                    -0.041481
     11 C                    -0.388387
     12 H                     0.116607
     13 H                     0.187784
     14 H                     0.116607
     15 H                     0.187784
     16 H                     0.136914
  ----------------------------------------
  Sum of atomic charges =    -0.000000

                    Cartesian Multipole Moments
 -----------------------------------------------------------------
    Charge (ESU x 10^10)
                -0.0000
    Dipole Moment (Debye)
         X       0.0000      Y      -0.0000      Z      -0.5974
       Tot       0.5974
    Quadrupole Moments (Debye-Ang)
        XX     -61.1649     XY       1.2584     YY     -70.4551
        XZ       0.0000     YZ      -0.0000     ZZ     -76.2376

 Total job time:  69.14s(wall), 78.08s(cpu)
        *  Thank you very much for using Q-Chem.  Have a nice day.  *
