 Q-Chem 4.4, Q-Chem, Inc., Pleasanton, CA (2016)
 Q-Chem 4.4.1 for Intel X86 EM64T Linux

User input:
--------------------------------------------------------------
$comment
<SCF Fix Strategy>{
    "current_method_id": 0,
    "methods": [
        "increase_iter",
        "diis_gdm",
        "gwh",
        "rca",
        "gdm",
        "core+gdm",
        "fon"
    ],
    "version": 2.0
}</SCF Fix Strategy>
$end

$molecule
 -1  2
 S           1.83794975       -1.27576249       -0.14871336
 C           3.23937819       -0.19806434       -0.14823333
 C           2.83626844        1.12431397       -0.14890172
 C           1.43724334        1.31134696       -0.14931220
 C           0.69606563        0.10654716       -0.14908151
 H           0.95807640        2.28459073       -0.14860036
 C          -0.69610330       -0.10652413       -0.14907621
 S          -1.45542738       -1.22382181       -1.32795376
 C          -1.70542336        0.44069007        0.67719048
 C          -3.06901926       -0.91526615       -0.67484596
 C          -3.00592548       -0.01601577        0.37327153
 H          -3.89014882        0.30969407        0.91625000
 H           4.24016475       -0.60708034       -0.14954918
 H           3.54430111        1.94981573       -0.14910914
 H          -3.93151381       -1.40983566       -1.09955024
 H          -1.48350354        1.14827204        1.46895071
$end

$rem
         jobtype = opt
        exchange = b3lyp
           basis = 6-31++g**
  max_scf_cycles = 200
      mem_static = 100
       mem_total = 1500
   scf_algorithm = diis
       scf_guess = sad
$end

$opt
CONSTRAINT
tors 4 5 7 9 -50.0
ENDCONSTRAINT
$end

--------------------------------------------------------------

   88   -1104.8329434122      9.12E-09 Convergence criterion met
 Total energy in the final basis set = -1104.8329434122
   18   -1104.8354658007      9.56E-09 Convergence criterion met
 Total energy in the final basis set = -1104.8354658007
   14   -1104.8367327772      3.87E-09 Convergence criterion met
 Total energy in the final basis set = -1104.8367327772
   13   -1104.8370788306      6.83E-09 Convergence criterion met
 Total energy in the final basis set = -1104.8370788306
   13   -1104.8372161261      4.78E-09 Convergence criterion met
 Total energy in the final basis set = -1104.8372161261
   11   -1104.8372465926      9.70E-09 Convergence criterion met
 Total energy in the final basis set = -1104.8372465926
   10   -1104.8372561286      6.41E-09 Convergence criterion met
 Total energy in the final basis set = -1104.8372561286
   10   -1104.8372592792      2.86E-09 Convergence criterion met
 Total energy in the final basis set = -1104.8372592792
    9   -1104.8372604678      4.68E-09 Convergence criterion met
 Total energy in the final basis set = -1104.8372604678

             Standard Nuclear Orientation (Angstroms)
    I     Atom           X                Y                Z
 ----------------------------------------------------------------
    1      S       1.6462622093     0.3842895389     1.1316425848
    2      C       3.1785714669     0.0185273527     0.3379181399
    3      C       2.9691962763    -0.3564393947    -0.9784762764
    4      C       1.6128129762    -0.3886591296    -1.3653545956
    5      C       0.7088057326     0.0344151621    -0.3651181415
    6      H       1.2675705524    -0.7394085627    -2.3325991099
    7      C      -0.7088057326    -0.0344151621    -0.3651181415
    8      S      -1.6462622093    -0.3842895389     1.1316425848
    9      C      -1.6128129762     0.3886591296    -1.3653545956
   10      C      -3.1785714669    -0.0185273527     0.3379181399
   11      C      -2.9691962763     0.3564393947    -0.9784762764
   12      H      -3.7816716975     0.6469221468    -1.6405990570
   13      H       4.1026394405     0.0357239625     0.8990507812
   14      H       3.7816716975    -0.6469221468    -1.6405990570
   15      H      -4.1026394405    -0.0357239625     0.8990507812
   16      H      -1.2675705524     0.7394085627    -2.3325991099
 ----------------------------------------------------------------

    8   -1104.8372611394      7.39E-09 Convergence criterion met
 Total energy in the final basis set = -1104.8372611394
 Final energy is   -1104.83726113942
 **  OPTIMIZATION CONVERGED  **

             Orbital Energies (a.u.) and Symmetries
 --------------------------------------------------------------

 Alpha MOs, Unrestricted
 -- Occupied --
-88.749 -88.749 -10.064 -10.064 -10.056 -10.056 -10.048 -10.048
  1 B     1 A     2 A     2 B     3 B     3 A     4 B     4 A
-10.034 -10.034  -7.808  -7.808  -5.773  -5.773  -5.769  -5.769
  5 B     5 A     6 B     6 A     7 B     7 A     8 B     8 A
 -5.766  -5.766  -0.722  -0.701  -0.604  -0.580  -0.571  -0.536
  9 A     9 B    10 A    10 B    11 A    12 A    11 B    12 B
 -0.446  -0.412  -0.396  -0.369  -0.362  -0.315  -0.261  -0.252
 13 A    14 A    13 B    14 B    15 A    15 B    16 A    17 A
 -0.248  -0.239  -0.237  -0.209  -0.208  -0.194  -0.178  -0.118
 16 B    17 B    18 A    18 B    19 A    20 A    19 B    20 B
 -0.106  -0.104  -0.055   0.052
 21 B    21 A    22 A    22 B

 Beta MOs, Unrestricted
 -- Occupied --
-88.749 -88.749 -10.063 -10.062 -10.053 -10.053 -10.049 -10.049
  1 B     1 A     2 A     2 B     3 B     3 A     4 B     4 A
-10.033 -10.033  -7.808  -7.808  -5.772  -5.772  -5.769  -5.769
  5 B     5 A     6 B     6 A     7 B     7 A     8 B     8 A
 -5.764  -5.764  -0.719  -0.698  -0.599  -0.576  -0.568  -0.531
  9 A     9 B    10 A    10 B    11 A    12 A    11 B    12 B
 -0.439  -0.409  -0.392  -0.366  -0.360  -0.313  -0.259  -0.251
 13 A    14 A    13 B    14 B    15 A    15 B    16 A    17 A
 -0.246  -0.234  -0.230  -0.206  -0.199  -0.191  -0.175  -0.102
 16 B    18 A    17 B    18 B    19 A    20 A    19 B    20 B
 -0.097  -0.096  -0.037
 21 B    21 A    22 A

          Ground-State Mulliken Net Atomic Charges

     Atom                 Charge (a.u.)    Spin (a.u.)
  --------------------------------------------------------
      1 S                    -0.238723       0.119637
      2 C                    -0.185276       0.239490
      3 C                    -0.331995      -0.068772
      4 C                    -0.069424       0.194655
      5 C                     0.014507       0.028881
      6 H                     0.097598      -0.005149
      7 C                     0.014507       0.028881
      8 S                    -0.238723       0.119637
      9 C                    -0.069424       0.194655
     10 C                    -0.185276       0.239490
     11 C                    -0.331995      -0.068772
     12 H                     0.070582       0.003270
     13 H                     0.142731      -0.012011
     14 H                     0.070582       0.003270
     15 H                     0.142731      -0.012011
     16 H                     0.097598      -0.005149
  --------------------------------------------------------
  Sum of atomic charges =    -1.000000

                    Cartesian Multipole Moments
 -----------------------------------------------------------------
    Charge (ESU x 10^10)
                -4.8032
    Dipole Moment (Debye)
         X      -0.0000      Y      -0.0000      Z      -0.4163
       Tot       0.4163
    Quadrupole Moments (Debye-Ang)
        XX     -99.8897     XY      -1.8925     YY     -86.6254
        XZ       0.0000     YZ       0.0000     ZZ     -83.7922

 Total job time:  118.92s(wall), 132.36s(cpu)
        *  Thank you very much for using Q-Chem.  Have a nice day.  *
