 Q-Chem 4.4, Q-Chem, Inc., Pleasanton, CA (2016)
 Q-Chem 4.4.1 for Intel X86 EM64T Linux

User input:
--------------------------------------------------------------
$comment
<SCF Fix Strategy>{
    "current_method_id": 0,
    "methods": [
        "increase_iter",
        "rca_diis",
        "gwh",
        "gdm",
        "rca",
        "core+rca",
        "fon"
    ],
    "version": 2.0
}</SCF Fix Strategy>
$end

$molecule
 -1  2
 S           1.83794975       -1.27576249       -0.14871336
 C           3.23937819       -0.19806434       -0.14823333
 C           2.83626844        1.12431397       -0.14890172
 C           1.43724334        1.31134696       -0.14931220
 C           0.69606563        0.10654716       -0.14908151
 H           0.95807640        2.28459073       -0.14860036
 C          -0.69610330       -0.10652413       -0.14907621
 S          -1.83798749        1.27578548       -0.14934993
 C          -1.43728096       -1.31132395       -0.14884553
 C          -3.23941591        0.19808756       -0.14849846
 C          -2.83630609       -1.12429091       -0.14859208
 H          -3.54433869       -1.94979273       -0.14849478
 H           4.24016475       -0.60708034       -0.14954918
 H           3.54430111        1.94981573       -0.14910914
 H          -4.24020241        0.60710293       -0.15004197
 H          -0.95811404       -2.28456732       -0.14770008
$end

$rem
         jobtype = opt
        exchange = b3lyp
           basis = 6-31++g**
  max_scf_cycles = 200
      mem_static = 100
       mem_total = 1500
   scf_algorithm = diis
       scf_guess = sad
$end

$opt
CONSTRAINT
tors 4 5 7 9 180.0
ENDCONSTRAINT
$end

--------------------------------------------------------------

             Standard Nuclear Orientation (Angstroms)
    I     Atom           X                Y                Z
 ----------------------------------------------------------------
    1      S       1.8692233701    -1.2295250690    -0.0001274925
    2      C       3.2433302788    -0.1172009410     0.0005381066
    3      C       2.8073565321     1.1947095206     0.0001572553
    4      C       1.4041009115     1.3467828296    -0.0001747257
    5      C       0.6932100797     0.1238677735    -0.0001747617
    6      H       0.9008035674     2.3077697286     0.0007538812
    7      C      -0.6932100797    -0.1238677735    -0.0001747617
    8      S      -1.8692233701     1.2295250690    -0.0001274925
    9      C      -1.4041009115    -1.3467828296    -0.0001747257
   10      C      -3.2433302788     0.1172009410     0.0005381066
   11      C      -2.8073565321    -1.1947095206     0.0001572553
   12      H      -3.4945748880    -2.0376177971     0.0001020414
   13      H       4.2540090646    -0.5011226869    -0.0008913769
   14      H       3.4945748880     2.0376177971     0.0001020414
   15      H      -4.2540090646     0.5011226869    -0.0008913769
   16      H      -0.9008035674    -2.3077697286     0.0007538812
 ----------------------------------------------------------------

  147   -1104.8464690556      7.01E-09 Convergence criterion met
 Total energy in the final basis set = -1104.8464690556
 Final energy is   -1104.84646905557
 **  OPTIMIZATION CONVERGED  **

             Orbital Energies (a.u.) and Symmetries
 --------------------------------------------------------------

 Alpha MOs, Unrestricted
 -- Occupied --
-88.751 -88.751 -10.065 -10.064 -10.057 -10.057 -10.049 -10.049
  1 A     1 B     2 A     2 B     3 B     3 A     4 B     4 A
-10.032 -10.032  -7.810  -7.810  -5.774  -5.774  -5.771  -5.771
  5 B     5 A     6 A     6 B     7 A     7 B     8 B     8 A
 -5.767  -5.767  -0.724  -0.702  -0.606  -0.582  -0.570  -0.536
  9 B     9 A    10 A    10 B    11 A    11 B    12 A    12 B
 -0.448  -0.418  -0.389  -0.369  -0.364  -0.316  -0.261  -0.256
 13 A    13 B    14 A    14 B    15 A    15 B    16 B    16 A
 -0.241  -0.241  -0.241  -0.212  -0.209  -0.195  -0.176  -0.129
 17 A    18 A    17 B    19 A    18 B    19 B    20 A    21 A
 -0.110  -0.102  -0.050   0.047
 20 B    22 A    21 B    23 A

 Beta MOs, Unrestricted
 -- Occupied --
-88.750 -88.750 -10.063 -10.063 -10.053 -10.053 -10.050 -10.050
  1 A     1 B     2 A     2 B     3 B     3 A     4 B     4 A
-10.030 -10.030  -7.809  -7.809  -5.774  -5.774  -5.771  -5.771
  5 B     5 A     6 A     6 B     7 A     7 B     8 B     8 A
 -5.765  -5.765  -0.720  -0.699  -0.601  -0.579  -0.566  -0.532
  9 B     9 A    10 A    10 B    11 A    11 B    12 A    12 B
 -0.441  -0.415  -0.386  -0.367  -0.362  -0.314  -0.259  -0.254
 13 A    13 B    14 A    14 B    15 A    15 B    16 B    16 A
 -0.239  -0.239  -0.231  -0.211  -0.200  -0.192  -0.174  -0.113
 17 B    17 A    18 A    19 A    18 B    19 B    20 A    21 A
 -0.101  -0.092  -0.031
 20 B    22 A    21 B

          Ground-State Mulliken Net Atomic Charges

     Atom                 Charge (a.u.)    Spin (a.u.)
  --------------------------------------------------------
      1 S                    -0.331559       0.095438
      2 C                    -0.082182       0.244550
      3 C                    -0.374059      -0.071125
      4 C                     0.283747       0.273831
      5 C                    -0.312947      -0.023361
      6 H                     0.086906      -0.008689
      7 C                    -0.312947      -0.023361
      8 S                    -0.331559       0.095438
      9 C                     0.283747       0.273831
     10 C                    -0.082182       0.244550
     11 C                    -0.374059      -0.071125
     12 H                     0.075478       0.004264
     13 H                     0.154616      -0.014907
     14 H                     0.075478       0.004264
     15 H                     0.154616      -0.014908
     16 H                     0.086906      -0.008689
  --------------------------------------------------------
  Sum of atomic charges =    -1.000000

                    Cartesian Multipole Moments
 -----------------------------------------------------------------
    Charge (ESU x 10^10)
                -4.8032
    Dipole Moment (Debye)
         X      -0.0000      Y       0.0000      Z      -0.0019
       Tot       0.0019
    Quadrupole Moments (Debye-Ang)
        XX     -99.5072     XY       0.8022     YY     -83.6967
        XZ       0.0000     YZ       0.0000     ZZ     -87.3316

 Total job time:  73.07s(wall), 82.69s(cpu)
        *  Thank you very much for using Q-Chem.  Have a nice day.  *
