 Q-Chem 4.4, Q-Chem, Inc., Pleasanton, CA (2016)
 Q-Chem 4.4.1 for Intel X86 EM64T Linux

User input:
--------------------------------------------------------------
$comment
<SCF Fix Strategy>{
    "current_method_id": 1,
    "methods": [
        "increase_iter",
        "rca_diis",
        "gwh",
        "gdm",
        "rca",
        "core+rca",
        "fon"
    ],
    "version": 2.0
}</SCF Fix Strategy>
$end

$molecule
 -1  2
 S           1.83794975       -1.27576249       -0.14871336
 C           3.23937819       -0.19806434       -0.14823333
 C           2.83626844        1.12431397       -0.14890172
 C           1.43724334        1.31134696       -0.14931220
 C           0.69606563        0.10654716       -0.14908151
 H           0.95807640        2.28459073       -0.14860036
 C          -0.69610330       -0.10652413       -0.14907621
 S          -1.37580751       -1.74402085       -0.41607081
 C          -1.76122642        0.80528125        0.03803522
 C          -3.03347695       -1.14748302       -0.26872837
 C          -3.04118719        0.21436779       -0.03106206
 H          -3.96208383        0.77968381        0.09194452
 H           4.24016475       -0.60708034       -0.14954918
 H           3.54430111        1.94981573       -0.14910914
 H          -3.86735423       -1.82902437       -0.36370023
 H          -1.59273663        1.86194994        0.21654957
$end

$rem
         jobtype = opt
        exchange = b3lyp
           basis = 6-31++g**
  max_scf_cycles = 200
      mem_static = 100
       mem_total = 1500
   scf_algorithm = rca_diis
       scf_guess = sad
$end

$opt
CONSTRAINT
tors 4 5 7 9 -10.0
ENDCONSTRAINT
$end

--------------------------------------------------------------

  108   -1104.8440494000      8.78E-09 Convergence criterion met
 Total energy in the final basis set = -1104.8440494000
   12   -1104.8444224618      4.87E-09 Convergence criterion met
 Total energy in the final basis set = -1104.8444224618
   11   -1104.8444857752      6.58E-09 Convergence criterion met
 Total energy in the final basis set = -1104.8444857752
   10   -1104.8445030233      7.09E-09 Convergence criterion met
 Total energy in the final basis set = -1104.8445030233
   10   -1104.8445100218      8.87E-09 Convergence criterion met
 Total energy in the final basis set = -1104.8445100218
   10   -1104.8445119466      6.42E-09 Convergence criterion met
 Total energy in the final basis set = -1104.8445119466

             Standard Nuclear Orientation (Angstroms)
    I     Atom           X                Y                Z
 ----------------------------------------------------------------
    1      S       1.6644480264     0.0843322010     1.1843747839
    2      C       3.1902865166     0.0089050026     0.2973621366
    3      C       2.9558520816    -0.0698310089    -1.0640788121
    4      C       1.5926836594    -0.0768586652    -1.4251195486
    5      C       0.7054383765     0.0086183074    -0.3242984282
    6      H       1.2398465247    -0.1580633783    -2.4474250717
    7      C      -0.7054383765    -0.0086183074    -0.3242984282
    8      S      -1.6644480264    -0.0843322010     1.1843747839
    9      C      -1.5926836594     0.0768586652    -1.4251195486
   10      C      -3.1902865166    -0.0089050026     0.2973621366
   11      C      -2.9558520816     0.0698310089    -1.0640788121
   12      H      -3.7617469321     0.1307844714    -1.7920080517
   13      H       4.1308783873     0.0117926771     0.8299131494
   14      H       3.7617469321    -0.1307844714    -1.7920080517
   15      H      -4.1308783873    -0.0117926771     0.8299131494
   16      H      -1.2398465247     0.1580633783    -2.4474250717
 ----------------------------------------------------------------

    9   -1104.8445126585      6.81E-09 Convergence criterion met
 Total energy in the final basis set = -1104.8445126585
 Final energy is   -1104.84451265853
 **  OPTIMIZATION CONVERGED  **

             Orbital Energies (a.u.) and Symmetries
 --------------------------------------------------------------

 Alpha MOs, Unrestricted
 -- Occupied --
-88.751 -88.751 -10.065 -10.064 -10.056 -10.056 -10.049 -10.049
  1 B     1 A     2 A     2 B     3 B     3 A     4 B     4 A
-10.033 -10.033  -7.810  -7.810  -5.774  -5.774  -5.771  -5.771
  5 B     5 A     6 B     6 A     7 B     7 A     8 B     8 A
 -5.767  -5.767  -0.724  -0.702  -0.606  -0.582  -0.571  -0.535
  9 A     9 B    10 A    10 B    11 A    12 A    11 B    12 B
 -0.447  -0.415  -0.393  -0.368  -0.364  -0.315  -0.262  -0.254
 13 A    14 A    13 B    14 B    15 A    15 B    16 A    17 A
 -0.244  -0.241  -0.240  -0.209  -0.208  -0.197  -0.176  -0.128
 16 B    17 B    18 A    19 A    18 B    20 A    19 B    20 B
 -0.110  -0.101  -0.050   0.047
 21 B    21 A    22 A    22 B

 Beta MOs, Unrestricted
 -- Occupied --
-88.750 -88.750 -10.063 -10.063 -10.052 -10.052 -10.050 -10.050
  1 B     1 A     2 A     2 B     3 B     3 A     4 B     4 A
-10.031 -10.031  -7.809  -7.809  -5.774  -5.774  -5.771  -5.770
  5 B     5 A     6 B     6 A     7 B     7 A     8 B     8 A
 -5.765  -5.765  -0.720  -0.699  -0.600  -0.578  -0.568  -0.531
  9 A     9 B    10 A    10 B    11 A    12 A    11 B    12 B
 -0.440  -0.413  -0.390  -0.365  -0.362  -0.313  -0.260  -0.253
 13 A    14 A    13 B    14 B    15 A    15 B    16 A    17 A
 -0.242  -0.237  -0.230  -0.206  -0.200  -0.195  -0.173  -0.112
 16 B    18 A    17 B    18 B    19 A    20 A    19 B    20 B
 -0.100  -0.093  -0.031
 21 B    21 A    22 A

          Ground-State Mulliken Net Atomic Charges

     Atom                 Charge (a.u.)    Spin (a.u.)
  --------------------------------------------------------
      1 S                    -0.321682       0.103427
      2 C                    -0.096257       0.244618
      3 C                    -0.420822      -0.072040
      4 C                     0.199837       0.242765
      5 C                    -0.158812       0.002347
      6 H                     0.072876      -0.010277
      7 C                    -0.158812       0.002347
      8 S                    -0.321682       0.103427
      9 C                     0.199837       0.242765
     10 C                    -0.096257       0.244618
     11 C                    -0.420822      -0.072040
     12 H                     0.071641       0.004202
     13 H                     0.153218      -0.015042
     14 H                     0.071641       0.004202
     15 H                     0.153218      -0.015042
     16 H                     0.072876      -0.010277
  --------------------------------------------------------
  Sum of atomic charges =    -1.000000

                    Cartesian Multipole Moments
 -----------------------------------------------------------------
    Charge (ESU x 10^10)
                -4.8032
    Dipole Moment (Debye)
         X       0.0000      Y      -0.0000      Z      -0.4383
       Tot       0.4383
    Quadrupole Moments (Debye-Ang)
        XX     -99.2353     XY      -0.4548     YY     -87.2368
        XZ      -0.0000     YZ       0.0000     ZZ     -83.4036

 Total job time:  134.20s(wall), 147.62s(cpu)
        *  Thank you very much for using Q-Chem.  Have a nice day.  *
