 Q-Chem 4.4, Q-Chem, Inc., Pleasanton, CA (2016)
 Q-Chem 4.4.1 for Intel X86 EM64T Linux

User input:
--------------------------------------------------------------
$comment
<SCF Fix Strategy>{
    "current_method_id": 0,
    "methods": [
        "increase_iter",
        "diis_gdm",
        "gwh",
        "rca",
        "gdm",
        "core+gdm",
        "fon"
    ],
    "version": 2.0
}</SCF Fix Strategy>
$end

$molecule
 -1  2
 S           1.83794975       -1.27576249       -0.14871336
 C           3.23937819       -0.19806434       -0.14823333
 C           2.83626844        1.12431397       -0.14890172
 C           1.43724334        1.31134696       -0.14931220
 C           0.69606563        0.10654716       -0.14908151
 H           0.95807640        2.28459073       -0.14860036
 C          -0.69610330       -0.10652413       -0.14907621
 S          -1.48867266       -1.00660703       -1.48187928
 C          -1.68212205        0.28844625        0.78508246
 C          -3.08384452       -0.81840227       -0.74333961
 C          -2.99119408       -0.11226632        0.44155290
 H          -3.86010524        0.11339822        1.05541963
 H           4.24016475       -0.60708034       -0.14954918
 H           3.54430111        1.94981573       -0.14910914
 H          -3.95832048       -1.23468887       -1.22382567
 H          -1.43787112        0.85012334        1.68044006
$end

$rem
         jobtype = opt
        exchange = b3lyp
           basis = 6-31++g**
  max_scf_cycles = 200
      mem_static = 100
       mem_total = 1500
   scf_algorithm = diis
       scf_guess = sad
$end

$opt
CONSTRAINT
tors 4 5 7 9 -60.0
ENDCONSTRAINT
$end

--------------------------------------------------------------

  177   -1104.8285505614      6.91E-09 Convergence criterion met
 Total energy in the final basis set = -1104.8285505614
   19   -1104.8316684939      7.77E-09 Convergence criterion met
 Total energy in the final basis set = -1104.8316684939
   14   -1104.8332361167      5.81E-09 Convergence criterion met
 Total energy in the final basis set = -1104.8332361167
   14   -1104.8337821770      4.17E-09 Convergence criterion met
 Total energy in the final basis set = -1104.8337821770
   13   -1104.8339987812      7.00E-09 Convergence criterion met
 Total energy in the final basis set = -1104.8339987812
   12   -1104.8340560067      7.66E-09 Convergence criterion met
 Total energy in the final basis set = -1104.8340560067
   11   -1104.8340714941      3.75E-09 Convergence criterion met
 Total energy in the final basis set = -1104.8340714941
   10   -1104.8340761291      4.10E-09 Convergence criterion met
 Total energy in the final basis set = -1104.8340761291
    9   -1104.8340776417      6.05E-09 Convergence criterion met
 Total energy in the final basis set = -1104.8340776417

             Standard Nuclear Orientation (Angstroms)
    I     Atom           X                Y                Z
 ----------------------------------------------------------------
    1      S       1.6426617334     0.4605392822     1.1050652195
    2      C       3.1747408924     0.0210446778     0.3530542628
    3      C       2.9729295981    -0.4347005147    -0.9390737135
    4      C       1.6191355123    -0.4725600702    -1.3355775422
    5      C       0.7108305101     0.0346167923    -0.3816368110
    6      H       1.2771995376    -0.8841710834    -2.2799496530
    7      C      -0.7108305101    -0.0346167923    -0.3816368110
    8      S      -1.6426617334    -0.4605392822     1.1050652195
    9      C      -1.6191355123     0.4725600702    -1.3355775422
   10      C      -3.1747408924    -0.0210446778     0.3530542628
   11      C      -2.9729295981     0.4347005147    -0.9390737135
   12      H      -3.7860218523     0.7851381147    -1.5706150010
   13      H       4.0911821746     0.0384575431     0.9269023729
   14      H       3.7860218523    -0.7851381147    -1.5706150010
   15      H      -4.0911821746    -0.0384575431     0.9269023729
   16      H      -1.2771995376     0.8841710834    -2.2799496530
 ----------------------------------------------------------------

    9   -1104.8340783465      5.39E-09 Convergence criterion met
 Total energy in the final basis set = -1104.8340783465
 Final energy is   -1104.83407834647
 **  OPTIMIZATION CONVERGED  **

             Orbital Energies (a.u.) and Symmetries
 --------------------------------------------------------------

 Alpha MOs, Unrestricted
 -- Occupied --
-88.749 -88.749 -10.064 -10.064 -10.056 -10.056 -10.048 -10.048
  1 B     1 A     2 A     2 B     3 B     3 A     4 B     4 A
-10.035 -10.035  -7.808  -7.808  -5.772  -5.772  -5.769  -5.769
  5 B     5 A     6 B     6 A     7 B     7 A     8 B     8 A
 -5.765  -5.765  -0.722  -0.701  -0.604  -0.579  -0.571  -0.536
  9 A     9 B    10 A    10 B    11 A    12 A    11 B    12 B
 -0.445  -0.410  -0.397  -0.370  -0.361  -0.315  -0.260  -0.252
 13 A    14 A    13 B    14 B    15 A    15 B    16 A    17 A
 -0.249  -0.239  -0.236  -0.210  -0.208  -0.192  -0.179  -0.114
 16 B    17 B    18 A    18 B    19 A    20 A    19 B    20 B
 -0.105  -0.104  -0.058   0.053
 21 A    21 B    22 A    22 B

 Beta MOs, Unrestricted
 -- Occupied --
-88.748 -88.748 -10.062 -10.062 -10.053 -10.053 -10.049 -10.049
  1 B     1 A     2 A     2 B     3 B     3 A     4 B     4 A
-10.034 -10.034  -7.807  -7.807  -5.772  -5.772  -5.768  -5.768
  5 B     5 A     6 B     6 A     7 B     7 A     8 B     8 A
 -5.763  -5.763  -0.718  -0.698  -0.598  -0.576  -0.568  -0.532
  9 A     9 B    10 A    10 B    11 A    12 A    11 B    12 B
 -0.438  -0.408  -0.393  -0.367  -0.360  -0.314  -0.258  -0.251
 13 A    14 A    13 B    14 B    15 A    15 B    16 A    17 A
 -0.247  -0.233  -0.230  -0.206  -0.199  -0.189  -0.176  -0.098
 16 B    18 A    17 B    18 B    19 A    20 A    19 B    20 B
 -0.097  -0.095  -0.041
 21 A    21 B    22 A

          Ground-State Mulliken Net Atomic Charges

     Atom                 Charge (a.u.)    Spin (a.u.)
  --------------------------------------------------------
      1 S                    -0.224451       0.123056
      2 C                    -0.194470       0.239132
      3 C                    -0.325106      -0.068830
      4 C                    -0.098235       0.186704
      5 C                     0.027036       0.031993
      6 H                     0.102091      -0.004606
      7 C                     0.027036       0.031993
      8 S                    -0.224451       0.123056
      9 C                    -0.098235       0.186704
     10 C                    -0.194470       0.239132
     11 C                    -0.325106      -0.068830
     12 H                     0.070953       0.002903
     13 H                     0.142181      -0.010352
     14 H                     0.070953       0.002903
     15 H                     0.142181      -0.010352
     16 H                     0.102091      -0.004606
  --------------------------------------------------------
  Sum of atomic charges =    -1.000000

                    Cartesian Multipole Moments
 -----------------------------------------------------------------
    Charge (ESU x 10^10)
                -4.8032
    Dipole Moment (Debye)
         X      -0.0000      Y      -0.0000      Z      -0.4141
       Tot       0.4141
    Quadrupole Moments (Debye-Ang)
        XX    -100.1626     XY      -2.2858     YY     -86.3974
        XZ       0.0000     YZ       0.0000     ZZ     -83.8900

 Total job time:  156.11s(wall), 175.05s(cpu)
        *  Thank you very much for using Q-Chem.  Have a nice day.  *
