 Q-Chem 4.4, Q-Chem, Inc., Pleasanton, CA (2016)
 Q-Chem 4.4.1 for Intel X86 EM64T Linux

User input:
--------------------------------------------------------------
$comment
<SCF Fix Strategy>{
    "current_method_id": 1,
    "methods": [
        "increase_iter",
        "rca_diis",
        "gwh",
        "gdm",
        "rca",
        "core+rca",
        "fon"
    ],
    "version": 2.0
}</SCF Fix Strategy>
$end

$molecule
 -1  2
 S           1.83794975       -1.27576249       -0.14871336
 C           3.23937819       -0.19806434       -0.14823333
 C           2.83626844        1.12431397       -0.14890172
 C           1.43724334        1.31134696       -0.14931220
 C           0.69606563        0.10654716       -0.14908151
 H           0.95807640        2.28459073       -0.14860036
 C          -0.69610330       -0.10652413       -0.14907621
 S          -1.56466122       -0.51011616       -1.66479388
 C          -1.62886182       -0.05954317        0.91329911
 C          -3.11771906       -0.59707423       -0.82462437
 C          -2.95751676       -0.33230582        0.52274909
 H          -3.79142947       -0.33531260        1.22084935
 H           4.24016475       -0.60708034       -0.14954918
 H           3.54430111        1.94981573       -0.14910914
 H          -4.01960488       -0.83427149       -1.37162440
 H          -1.33355283        0.16853292        1.93191523
$end

$rem
         jobtype = opt
        exchange = b3lyp
           basis = 6-31++g**
  max_scf_cycles = 200
      mem_static = 100
       mem_total = 1500
   scf_algorithm = rca_diis
       scf_guess = sad
$end

$opt
CONSTRAINT
tors 4 5 7 9 -80.0
ENDCONSTRAINT
$end

--------------------------------------------------------------

   84   -1104.8196581881      3.65E-09 Convergence criterion met
 Total energy in the final basis set = -1104.8196581881
   25   -1104.8238687164      9.88E-09 Convergence criterion met
 Total energy in the final basis set = -1104.8238687164
   17   -1104.8258829006      2.97E-09 Convergence criterion met
 Total energy in the final basis set = -1104.8258829006
   15   -1104.8267810754      5.09E-09 Convergence criterion met
 Total energy in the final basis set = -1104.8267810754
   14   -1104.8270724896      4.80E-09 Convergence criterion met
 Total energy in the final basis set = -1104.8270724896
   13   -1104.8271774393      4.95E-09 Convergence criterion met
 Total energy in the final basis set = -1104.8271774393
   11   -1104.8271985949      7.24E-09 Convergence criterion met
 Total energy in the final basis set = -1104.8271985949
   11   -1104.8272048935      4.02E-09 Convergence criterion met
 Total energy in the final basis set = -1104.8272048935
    9   -1104.8272059459      9.54E-09 Convergence criterion met
 Total energy in the final basis set = -1104.8272059459

             Standard Nuclear Orientation (Angstroms)
    I     Atom           X                Y                Z
 ----------------------------------------------------------------
    1      S       1.6561418171     0.6477444164     1.0179103053
    2      C       3.1728660320     0.0359841897     0.3721136301
    3      C       2.9710654659    -0.6052283149    -0.8392745732
    4      C       1.6191961561    -0.6574634702    -1.2458776460
    5      C       0.7155280541     0.0200835946    -0.4085100417
    6      H       1.2743048724    -1.2044556838    -2.1180871764
    7      C      -0.7155280541    -0.0200835946    -0.4085100417
    8      S      -1.6561418171    -0.6477444164     1.0179103053
    9      C      -1.6191961561     0.6574634702    -1.2458776460
   10      C      -3.1728660320    -0.0359841897     0.3721136301
   11      C      -2.9710654659     0.6052283149    -0.8392745732
   12      H      -3.7755484764     1.0873918769    -1.3895356501
   13      H       4.0771312186     0.0704749848     0.9652510394
   14      H       3.7755484764    -1.0873918769    -1.3895356501
   15      H      -4.0771312186    -0.0704749848     0.9652510394
   16      H      -1.2743048724     1.2044556838    -2.1180871764
 ----------------------------------------------------------------

    8   -1104.8272061567      5.64E-09 Convergence criterion met
 Total energy in the final basis set = -1104.8272061567
 Final energy is   -1104.82720615668
 **  OPTIMIZATION CONVERGED  **

             Orbital Energies (a.u.) and Symmetries
 --------------------------------------------------------------

 Alpha MOs, Unrestricted
 -- Occupied --
-88.747 -88.747 -10.064 -10.063 -10.058 -10.058 -10.048 -10.048
  1 B     1 A     2 A     2 B     3 B     3 A     4 B     4 A
-10.038 -10.038  -7.806  -7.806  -5.770  -5.770  -5.767  -5.767
  5 A     5 B     6 B     6 A     7 B     7 A     8 B     8 A
 -5.763  -5.763  -0.720  -0.701  -0.602  -0.577  -0.572  -0.536
  9 B     9 A    10 A    10 B    11 A    12 A    11 B    12 B
 -0.444  -0.406  -0.400  -0.370  -0.361  -0.316  -0.259  -0.252
 13 A    14 A    13 B    14 B    15 A    15 B    16 A    17 A
 -0.251  -0.239  -0.234  -0.211  -0.207  -0.188  -0.182  -0.107
 16 B    17 B    18 A    18 B    19 A    20 A    19 B    21 A
 -0.105  -0.097  -0.066   0.057
 20 B    21 B    22 A    22 B

 Beta MOs, Unrestricted
 -- Occupied --
-88.747 -88.747 -10.061 -10.061 -10.055 -10.055 -10.048 -10.048
  1 B     1 A     2 A     2 B     3 B     3 A     4 B     4 A
-10.036 -10.036  -7.805  -7.805  -5.770  -5.770  -5.767  -5.767
  5 A     5 B     6 B     6 A     7 B     7 A     8 B     8 A
 -5.762  -5.762  -0.716  -0.698  -0.597  -0.574  -0.569  -0.533
  9 B     9 A    10 A    10 B    11 A    12 A    11 B    12 B
 -0.438  -0.404  -0.396  -0.368  -0.359  -0.314  -0.257  -0.250
 13 A    14 A    13 B    14 B    15 A    15 B    16 A    17 A
 -0.248  -0.232  -0.231  -0.206  -0.199  -0.185  -0.178  -0.099
 16 B    17 B    18 A    18 B    19 A    20 A    19 B    21 A
 -0.093  -0.086  -0.050
 20 B    21 B    22 A

          Ground-State Mulliken Net Atomic Charges

     Atom                 Charge (a.u.)    Spin (a.u.)
  --------------------------------------------------------
      1 S                    -0.193429       0.126693
      2 C                    -0.183485       0.230187
      3 C                    -0.326798      -0.056229
      4 C                    -0.000325       0.169778
      5 C                    -0.112328       0.039668
      6 H                     0.102229      -0.005237
      7 C                    -0.112328       0.039668
      8 S                    -0.193429       0.126693
      9 C                    -0.000325       0.169778
     10 C                    -0.183485       0.230187
     11 C                    -0.326798      -0.056229
     12 H                     0.072060       0.002237
     13 H                     0.142076      -0.007096
     14 H                     0.072060       0.002237
     15 H                     0.142076      -0.007096
     16 H                     0.102229      -0.005237
  --------------------------------------------------------
  Sum of atomic charges =    -1.000000

                    Cartesian Multipole Moments
 -----------------------------------------------------------------
    Charge (ESU x 10^10)
                -4.8032
    Dipole Moment (Debye)
         X      -0.0000      Y      -0.0000      Z      -0.3929
       Tot       0.3929
    Quadrupole Moments (Debye-Ang)
        XX    -100.6874     XY      -3.0940     YY     -85.9211
        XZ       0.0000     YZ       0.0000     ZZ     -84.2552

 Total job time:  170.27s(wall), 187.01s(cpu)
        *  Thank you very much for using Q-Chem.  Have a nice day.  *
