 Q-Chem 4.4, Q-Chem, Inc., Pleasanton, CA (2016)
 Q-Chem 4.4.1 for Intel X86 EM64T Linux

User input:
--------------------------------------------------------------
$comment
<SCF Fix Strategy>{
    "current_method_id": 0,
    "methods": [
        "increase_iter",
        "diis_gdm",
        "gwh",
        "rca",
        "gdm",
        "core+gdm",
        "fon"
    ],
    "version": 2.0
}</SCF Fix Strategy>
$end

$molecule
 -1  2
 S           1.83794975       -1.27576249       -0.14871336
 C           3.23937819       -0.19806434       -0.14823333
 C           2.83626844        1.12431397       -0.14890172
 C           1.43724334        1.31134696       -0.14931220
 C           0.69606563        0.10654716       -0.14908151
 H           0.95807640        2.28459073       -0.14860036
 C          -0.69610330       -0.10652413       -0.14907621
 S          -1.83444360        1.25262372       -0.41661673
 C          -1.43976576       -1.29508408        0.03848281
 C          -3.23785485        0.18788496       -0.26760869
 C          -2.83788626       -1.11396339       -0.03012532
 H          -3.54755019       -1.92880340        0.09306679
 H           4.24016475       -0.60708034       -0.14954918
 H           3.54430111        1.94981573       -0.14910914
 H          -4.23732382        0.58828937       -0.36562754
 H          -0.96300608       -2.25259454        0.21925566
$end

$rem
         jobtype = opt
        exchange = b3lyp
           basis = 6-31++g**
  max_scf_cycles = 200
      mem_static = 100
       mem_total = 1500
   scf_algorithm = diis
       scf_guess = sad
$end

$opt
CONSTRAINT
tors 4 5 7 9 -170.0
ENDCONSTRAINT
$end

--------------------------------------------------------------

   49   -1104.8459699332      8.35E-09 Convergence criterion met
 Total energy in the final basis set = -1104.8459699332
   11   -1104.8460795492      5.18E-09 Convergence criterion met
 Total energy in the final basis set = -1104.8460795492
   11   -1104.8461289250      6.62E-09 Convergence criterion met
 Total energy in the final basis set = -1104.8461289250
   10   -1104.8461359785      5.68E-09 Convergence criterion met
 Total energy in the final basis set = -1104.8461359785
   10   -1104.8461379140      2.87E-09 Convergence criterion met
 Total energy in the final basis set = -1104.8461379140

             Standard Nuclear Orientation (Angstroms)
    I     Atom           X                Y                Z
 ----------------------------------------------------------------
    1      S       1.8689445693    -1.2284866518    -0.0828576553
    2      C       3.2433275503    -0.1202268350     0.0095244419
    3      C       2.8076893641     1.1895993620     0.0876946352
    4      C       1.4045993241     1.3428426116     0.0808861866
    5      C       0.6933015934     0.1241617523    -0.0130947014
    6      H       0.9009138146     2.3004225278     0.1594168314
    7      C      -0.6933015934    -0.1241617523    -0.0130947014
    8      S      -1.8689445693     1.2284866518    -0.0828576553
    9      C      -1.4045993241    -1.3428426116     0.0808861866
   10      C      -3.2433275503     0.1202268350     0.0095244419
   11      C      -2.8076893641    -1.1895993620     0.0876946352
   12      H      -3.4948638564    -2.0294505429     0.1593897342
   13      H       4.2534755675    -0.5055594726     0.0140295842
   14      H       3.4948638564     2.0294505429     0.1593897342
   15      H      -4.2534755675     0.5055594726     0.0140295842
   16      H      -0.9009138146    -2.3004225278     0.1594168314
 ----------------------------------------------------------------

    8   -1104.8461382184      5.42E-09 Convergence criterion met
 Total energy in the final basis set = -1104.8461382184
 Final energy is   -1104.84613821835
 **  OPTIMIZATION CONVERGED  **

             Orbital Energies (a.u.) and Symmetries
 --------------------------------------------------------------

 Alpha MOs, Unrestricted
 -- Occupied --
-88.751 -88.751 -10.065 -10.064 -10.057 -10.057 -10.049 -10.049
  1 A     1 B     2 A     2 B     3 B     3 A     4 B     4 A
-10.033 -10.033  -7.810  -7.810  -5.774  -5.774  -5.771  -5.771
  5 B     5 A     6 A     6 B     7 A     7 B     8 B     8 A
 -5.767  -5.767  -0.724  -0.702  -0.606  -0.582  -0.570  -0.536
  9 B     9 A    10 A    10 B    11 A    11 B    12 A    12 B
 -0.448  -0.418  -0.389  -0.369  -0.364  -0.316  -0.261  -0.256
 13 A    13 B    14 A    14 B    15 A    15 B    16 B    16 A
 -0.242  -0.241  -0.241  -0.212  -0.209  -0.195  -0.176  -0.128
 17 A    17 B    18 A    19 A    18 B    19 B    20 A    21 A
 -0.110  -0.102  -0.051   0.047
 20 B    22 A    21 B    23 A

 Beta MOs, Unrestricted
 -- Occupied --
-88.750 -88.750 -10.063 -10.063 -10.053 -10.053 -10.050 -10.050
  1 A     1 B     2 A     2 B     3 B     3 A     4 B     4 A
-10.031 -10.031  -7.809  -7.809  -5.774  -5.774  -5.771  -5.771
  5 B     5 A     6 A     6 B     7 A     7 B     8 B     8 A
 -5.765  -5.765  -0.720  -0.699  -0.601  -0.579  -0.566  -0.532
  9 B     9 A    10 A    10 B    11 A    11 B    12 A    12 B
 -0.441  -0.415  -0.387  -0.367  -0.362  -0.314  -0.259  -0.254
 13 A    13 B    14 A    14 B    15 A    15 B    16 B    16 A
 -0.239  -0.239  -0.231  -0.211  -0.200  -0.192  -0.174  -0.113
 17 B    17 A    18 A    19 A    18 B    19 B    20 A    21 A
 -0.100  -0.092  -0.032
 20 B    22 A    21 B

          Ground-State Mulliken Net Atomic Charges

     Atom                 Charge (a.u.)    Spin (a.u.)
  --------------------------------------------------------
      1 S                    -0.319583       0.097281
      2 C                    -0.094097       0.243972
      3 C                    -0.348986      -0.073014
      4 C                     0.240231       0.271516
      5 C                    -0.291944      -0.021408
      6 H                     0.087718      -0.007781
      7 C                    -0.291944      -0.021408
      8 S                    -0.319583       0.097281
      9 C                     0.240231       0.271516
     10 C                    -0.094097       0.243972
     11 C                    -0.348986      -0.073014
     12 H                     0.074847       0.004184
     13 H                     0.151814      -0.014750
     14 H                     0.074847       0.004184
     15 H                     0.151814      -0.014750
     16 H                     0.087718      -0.007781
  --------------------------------------------------------
  Sum of atomic charges =    -1.000000

                    Cartesian Multipole Moments
 -----------------------------------------------------------------
    Charge (ESU x 10^10)
                -4.8032
    Dipole Moment (Debye)
         X       0.0000      Y      -0.0000      Z       0.1299
       Tot       0.1299
    Quadrupole Moments (Debye-Ang)
        XX     -99.5247     XY       0.8121     YY     -83.7539
        XZ      -0.0000     YZ      -0.0000     ZZ     -87.3015

 Total job time:  63.09s(wall), 69.23s(cpu)
        *  Thank you very much for using Q-Chem.  Have a nice day.  *
