 Q-Chem 4.4, Q-Chem, Inc., Pleasanton, CA (2016)
 Q-Chem 4.4.1 for Intel X86 EM64T Linux

User input:
--------------------------------------------------------------
$comment
<SCF Fix Strategy>{
    "current_method_id": 1,
    "methods": [
        "increase_iter",
        "rca_diis",
        "gwh",
        "gdm",
        "rca",
        "core+rca",
        "fon"
    ],
    "version": 2.0
}</SCF Fix Strategy>
$end

$molecule
 -1  2
 S           1.83794975       -1.27576249       -0.14871336
 C           3.23937819       -0.19806434       -0.14823333
 C           2.83626844        1.12431397       -0.14890172
 C           1.43724334        1.31134696       -0.14931220
 C           0.69606563        0.10654716       -0.14908151
 H           0.95807640        2.28459073       -0.14860036
 C          -0.69610330       -0.10652413       -0.14907621
 S          -1.52545649       -0.76627099       -1.59530814
 C          -1.65634042        0.11999574        0.86459061
 C          -3.10024389       -0.71125308       -0.79377658
 C          -2.97489274       -0.21877507        0.49188856
 H          -3.82686210       -0.10380386        1.15799161
 H           4.24016475       -0.60708034       -0.14954918
 H           3.54430111        1.94981573       -0.14910914
 H          -3.98798461       -1.04087113       -1.31544499
 H          -1.38737612        0.52020214        1.83634056
$end

$rem
         jobtype = opt
        exchange = b3lyp
           basis = 6-31++g**
  max_scf_cycles = 200
      mem_static = 100
       mem_total = 1500
   scf_algorithm = rca_diis
       scf_guess = sad
$end

$opt
CONSTRAINT
tors 4 5 7 9 -70.0
ENDCONSTRAINT
$end

--------------------------------------------------------------

   95   -1104.8240309051      5.08E-09 Convergence criterion met
 Total energy in the final basis set = -1104.8240309051
   23   -1104.8277468334      3.61E-09 Convergence criterion met
 Total energy in the final basis set = -1104.8277468334
   15   -1104.8295405978      4.20E-09 Convergence criterion met
 Total energy in the final basis set = -1104.8295405978
   14   -1104.8302492563      7.57E-09 Convergence criterion met
 Total energy in the final basis set = -1104.8302492563
   13   -1104.8305118902      9.24E-09 Convergence criterion met
 Total energy in the final basis set = -1104.8305118902
   13   -1104.8305952546      4.52E-09 Convergence criterion met
 Total energy in the final basis set = -1104.8305952546
   11   -1104.8306146024      4.89E-09 Convergence criterion met
 Total energy in the final basis set = -1104.8306146024
   10   -1104.8306202292      7.56E-09 Convergence criterion met
 Total energy in the final basis set = -1104.8306202292
    9   -1104.8306215620      7.08E-09 Convergence criterion met
 Total energy in the final basis set = -1104.8306215620

             Standard Nuclear Orientation (Angstroms)
    I     Atom           X                Y                Z
 ----------------------------------------------------------------
    1      S       1.6453131326     0.5489287585     1.0679081958
    2      C       3.1727403164     0.0274252146     0.3648351332
    3      C       2.9739486731    -0.5181804103    -0.8927275985
    4      C       1.6218049664    -0.5629961996    -1.2961533003
    5      C       0.7131936914     0.0296166831    -0.3967028330
    6      H       1.2804249907    -1.0406191852    -2.2093542206
    7      C      -0.7131936914    -0.0296166831    -0.3967028330
    8      S      -1.6453131326    -0.5489287585     1.0679081958
    9      C      -1.6218049664     0.5629961996    -1.2961533003
   10      C      -3.1727403164    -0.0274252146     0.3648351332
   11      C      -2.9739486731     0.5181804103    -0.8927275985
   12      H      -3.7846484206     0.9334312689    -1.4868057547
   13      H       4.0820422024     0.0494836133     0.9502439395
   14      H       3.7846484206    -0.9334312689    -1.4868057547
   15      H      -4.0820422024    -0.0494836133     0.9502439395
   16      H      -1.2804249907     1.0406191852    -2.2093542206
 ----------------------------------------------------------------

    9   -1104.8306220753      4.55E-09 Convergence criterion met
 Total energy in the final basis set = -1104.8306220753
 Final energy is   -1104.83062207532
 **  OPTIMIZATION CONVERGED  **

             Orbital Energies (a.u.) and Symmetries
 --------------------------------------------------------------

 Alpha MOs, Unrestricted
 -- Occupied --
-88.748 -88.748 -10.064 -10.064 -10.057 -10.057 -10.048 -10.048
  1 B     1 A     2 A     2 B     3 B     3 A     4 B     4 A
-10.036 -10.036  -7.807  -7.807  -5.771  -5.771  -5.768  -5.768
  5 A     5 B     6 B     6 A     7 B     7 A     8 B     8 A
 -5.764  -5.764  -0.721  -0.701  -0.603  -0.578  -0.572  -0.536
  9 B     9 A    10 A    10 B    11 A    12 A    11 B    12 B
 -0.445  -0.408  -0.398  -0.370  -0.361  -0.316  -0.259  -0.252
 13 A    14 A    13 B    14 B    15 A    15 B    16 A    17 A
 -0.250  -0.239  -0.235  -0.211  -0.207  -0.190  -0.180  -0.109
 16 B    17 B    18 A    18 B    19 A    20 A    19 B    20 B
 -0.106  -0.101  -0.061   0.055
 21 A    21 B    22 A    22 B

 Beta MOs, Unrestricted
 -- Occupied --
-88.747 -88.747 -10.062 -10.062 -10.054 -10.054 -10.048 -10.048
  1 B     1 A     2 A     2 B     3 B     3 A     4 B     4 A
-10.035 -10.035  -7.806  -7.806  -5.771  -5.771  -5.767  -5.767
  5 B     5 A     6 B     6 A     7 B     7 A     8 B     8 A
 -5.763  -5.763  -0.717  -0.698  -0.598  -0.575  -0.568  -0.532
  9 B     9 A    10 A    10 B    11 A    12 A    11 B    12 B
 -0.438  -0.406  -0.395  -0.367  -0.359  -0.314  -0.257  -0.250
 13 A    14 A    13 B    14 B    15 A    15 B    16 A    17 A
 -0.247  -0.232  -0.231  -0.206  -0.199  -0.187  -0.177  -0.098
 16 B    18 A    17 B    18 B    19 A    20 A    19 B    21 A
 -0.094  -0.092  -0.045
 20 B    21 B    22 A

          Ground-State Mulliken Net Atomic Charges

     Atom                 Charge (a.u.)    Spin (a.u.)
  --------------------------------------------------------
      1 S                    -0.211386       0.125594
      2 C                    -0.192121       0.236691
      3 C                    -0.327122      -0.065424
      4 C                    -0.066287       0.179858
      5 C                    -0.020131       0.034072
      6 H                     0.103852      -0.004683
      7 C                    -0.020131       0.034072
      8 S                    -0.211386       0.125594
      9 C                    -0.066287       0.179858
     10 C                    -0.192121       0.236691
     11 C                    -0.327122      -0.065424
     12 H                     0.071284       0.002569
     13 H                     0.141910      -0.008676
     14 H                     0.071284       0.002569
     15 H                     0.141910      -0.008676
     16 H                     0.103852      -0.004683
  --------------------------------------------------------
  Sum of atomic charges =    -1.000000

                    Cartesian Multipole Moments
 -----------------------------------------------------------------
    Charge (ESU x 10^10)
                -4.8032
    Dipole Moment (Debye)
         X       0.0000      Y       0.0000      Z      -0.4041
       Tot       0.4041
    Quadrupole Moments (Debye-Ang)
        XX    -100.4490     XY      -2.6982     YY     -86.1517
        XZ      -0.0000     YZ      -0.0000     ZZ     -84.0349

 Total job time:  172.84s(wall), 189.73s(cpu)
        *  Thank you very much for using Q-Chem.  Have a nice day.  *
