 Q-Chem 4.4, Q-Chem, Inc., Pleasanton, CA (2016)
 Q-Chem 4.4.1 for Intel X86 EM64T Linux

User input:
--------------------------------------------------------------
$comment
<SCF Fix Strategy>{
    "current_method_id": 1,
    "methods": [
        "increase_iter",
        "rca_diis",
        "gwh",
        "gdm",
        "rca",
        "core+rca",
        "fon"
    ],
    "version": 2.0
}</SCF Fix Strategy>
$end

$molecule
 -1  2
 S           1.83794975       -1.27576249       -0.14871336
 C           3.23937819       -0.19806434       -0.14823333
 C           2.83626844        1.12431397       -0.14890172
 C           1.43724334        1.31134696       -0.14931220
 C           0.69606563        0.10654716       -0.14908151
 H           0.95807640        2.28459073       -0.14860036
 C          -0.69610330       -0.10652413       -0.14907621
 S          -1.80677264        1.07181424       -0.91888901
 C          -1.45916212       -1.16834304        0.39052441
 C          -3.22555826        0.10753568       -0.49151400
 C          -2.85016946       -1.03370166        0.19247644
 H          -3.57257607       -1.76527757        0.54700264
 H           4.24016475       -0.60708034       -0.14954918
 H           3.54430111        1.94981573       -0.14910914
 H          -4.21496511        0.44219161       -0.77070761
 H          -1.00104875       -2.00401353        0.90878290
$end

$rem
         jobtype = opt
        exchange = b3lyp
           basis = 6-31++g**
  max_scf_cycles = 200
      mem_static = 100
       mem_total = 1500
   scf_algorithm = rca_diis
       scf_guess = sad
$end

$opt
CONSTRAINT
tors 4 5 7 9 -150.0
ENDCONSTRAINT
$end

--------------------------------------------------------------

   84   -1104.8419522615      3.67E-09 Convergence criterion met
 Total energy in the final basis set = -1104.8419522615
   13   -1104.8428828309      3.83E-09 Convergence criterion met
 Total energy in the final basis set = -1104.8428828309
   13   -1104.8433652083      5.03E-09 Convergence criterion met
 Total energy in the final basis set = -1104.8433652083
   12   -1104.8434459937      6.37E-09 Convergence criterion met
 Total energy in the final basis set = -1104.8434459937
   11   -1104.8434680781      6.68E-09 Convergence criterion met
 Total energy in the final basis set = -1104.8434680781
    9   -1104.8434721567      9.86E-09 Convergence criterion met
 Total energy in the final basis set = -1104.8434721567
    9   -1104.8434735518      6.02E-09 Convergence criterion met
 Total energy in the final basis set = -1104.8434735518

             Standard Nuclear Orientation (Angstroms)
    I     Atom           X                Y                Z
 ----------------------------------------------------------------
    1      S       1.8663541354    -1.2201288463    -0.2348019567
    2      C       3.2417590106    -0.1442678279     0.0356401458
    3      C       2.8103095030     1.1500184850     0.2623073738
    4      C       1.4084833178     1.3132226917     0.2389605396
    5      C       0.6940127769     0.1262345665    -0.0396984103
    6      H       0.9040994541     2.2500286637     0.4517163892
    7      C      -0.6940127769    -0.1262345665    -0.0396984103
    8      S      -1.8663541354     1.2201288463    -0.2348019567
    9      C      -1.4084833178    -1.3132226917     0.2389605396
   10      C      -3.2417590106     0.1442678279     0.0356401458
   11      C      -2.8103095030    -1.1500184850     0.2623073738
   12      H      -3.4980137396    -1.9667084948     0.4691692353
   13      H       4.2482884051    -0.5388758772     0.0487001789
   14      H       3.4980137396     1.9667084948     0.4691692353
   15      H      -4.2482884051     0.5388758772     0.0487001789
   16      H      -0.9040994541    -2.2500286637     0.4517163892
 ----------------------------------------------------------------

    8   -1104.8434738569      3.80E-09 Convergence criterion met
 Total energy in the final basis set = -1104.8434738569
 Final energy is   -1104.84347385690
 **  OPTIMIZATION CONVERGED  **

             Orbital Energies (a.u.) and Symmetries
 --------------------------------------------------------------

 Alpha MOs, Unrestricted
 -- Occupied --
-88.751 -88.751 -10.065 -10.064 -10.057 -10.057 -10.049 -10.049
  1 A     1 B     2 A     2 B     3 B     3 A     4 A     4 B
-10.033 -10.033  -7.810  -7.810  -5.774  -5.774  -5.771  -5.771
  5 B     5 A     6 A     6 B     7 A     7 B     8 B     8 A
 -5.767  -5.767  -0.724  -0.702  -0.606  -0.582  -0.571  -0.536
  9 B     9 A    10 A    10 B    11 A    11 B    12 A    12 B
 -0.447  -0.417  -0.390  -0.370  -0.363  -0.316  -0.261  -0.256
 13 A    13 B    14 A    14 B    15 A    15 B    16 B    16 A
 -0.242  -0.241  -0.240  -0.212  -0.209  -0.194  -0.177  -0.125
 17 A    17 B    18 A    19 A    18 B    19 B    20 A    21 A
 -0.109  -0.103  -0.052   0.049
 20 B    22 A    21 B    23 A

 Beta MOs, Unrestricted
 -- Occupied --
-88.750 -88.750 -10.063 -10.063 -10.054 -10.054 -10.050 -10.050
  1 A     1 B     2 A     2 B     3 B     3 A     4 A     4 B
-10.031 -10.031  -7.809  -7.809  -5.774  -5.774  -5.770  -5.770
  5 B     5 A     6 A     6 B     7 A     7 B     8 B     8 A
 -5.765  -5.765  -0.720  -0.699  -0.601  -0.579  -0.567  -0.532
  9 B     9 A    10 A    10 B    11 A    11 B    12 A    12 B
 -0.440  -0.415  -0.388  -0.367  -0.362  -0.314  -0.259  -0.254
 13 A    13 B    14 A    14 B    15 A    15 B    16 B    16 A
 -0.240  -0.239  -0.231  -0.210  -0.200  -0.191  -0.175  -0.109
 17 B    17 A    18 A    19 A    18 B    19 B    20 A    21 A
 -0.099  -0.094  -0.034
 20 B    22 A    21 B

          Ground-State Mulliken Net Atomic Charges

     Atom                 Charge (a.u.)    Spin (a.u.)
  --------------------------------------------------------
      1 S                    -0.275786       0.102976
      2 C                    -0.097689       0.245225
      3 C                    -0.354944      -0.084086
      4 C                     0.162408       0.263249
      5 C                    -0.238817      -0.017395
      6 H                     0.088643      -0.001831
      7 C                    -0.238817      -0.017395
      8 S                    -0.275786       0.102976
      9 C                     0.162408       0.263249
     10 C                    -0.097689       0.245225
     11 C                    -0.354944      -0.084086
     12 H                     0.072060       0.003974
     13 H                     0.144125      -0.012111
     14 H                     0.072060       0.003974
     15 H                     0.144125      -0.012111
     16 H                     0.088643      -0.001831
  --------------------------------------------------------
  Sum of atomic charges =    -1.000000

                    Cartesian Multipole Moments
 -----------------------------------------------------------------
    Charge (ESU x 10^10)
                -4.8032
    Dipole Moment (Debye)
         X       0.0000      Y       0.0000      Z       0.3237
       Tot       0.3237
    Quadrupole Moments (Debye-Ang)
        XX     -99.7750     XY       0.8555     YY     -84.0787
        XZ       0.0000     YZ      -0.0000     ZZ     -87.0995

 Total job time:  134.14s(wall), 145.52s(cpu)
        *  Thank you very much for using Q-Chem.  Have a nice day.  *
