 Q-Chem 4.4, Q-Chem, Inc., Pleasanton, CA (2016)
 Q-Chem 4.4.1 for Intel X86 EM64T Linux

User input:
--------------------------------------------------------------
$comment
<SCF Fix Strategy>{
    "current_method_id": 1,
    "methods": [
        "increase_iter",
        "rca_diis",
        "gwh",
        "gdm",
        "rca",
        "core+rca",
        "fon"
    ],
    "version": 2.0
}</SCF Fix Strategy>
$end

$molecule
 -1  2
 S           1.83794975       -1.27576249       -0.14871336
 C           3.23937819       -0.19806434       -0.14823333
 C           2.83626844        1.12431397       -0.14890172
 C           1.43724334        1.31134696       -0.14931220
 C           0.69606563        0.10654716       -0.14908151
 H           0.95807640        2.28459073       -0.14860036
 C          -0.69610330       -0.10652413       -0.14907621
 S          -1.82395696        1.18412565        0.37708792
 C          -1.44711334       -1.24709020       -0.51783082
 C          -3.23312780        0.15700805        0.08605161
 C          -2.84250719       -1.08377985       -0.38196896
 H          -3.55700352       -1.86705485       -0.62432962
 H           4.24016475       -0.60708034       -0.14954918
 H           3.54430111        1.94981573       -0.14910914
 H          -4.22892342        0.53341861        0.27466702
 H          -0.97732727       -2.15904958       -0.87058577
$end

$rem
         jobtype = opt
        exchange = b3lyp
           basis = 6-31++g**
  max_scf_cycles = 200
      mem_static = 100
       mem_total = 1500
   scf_algorithm = rca_diis
       scf_guess = sad
$end

$opt
CONSTRAINT
tors 4 5 7 9 160.0
ENDCONSTRAINT
$end

--------------------------------------------------------------

  147   -1104.8444676952      5.87E-09 Convergence criterion met
 Total energy in the final basis set = -1104.8444676952
   12   -1104.8448934177      7.01E-09 Convergence criterion met
 Total energy in the final basis set = -1104.8448934177
   12   -1104.8451000121      1.00E-08 Convergence criterion met
 Total energy in the final basis set = -1104.8451000121
   11   -1104.8451300074      4.72E-09 Convergence criterion met
 Total energy in the final basis set = -1104.8451300074
   10   -1104.8451386004      5.73E-09 Convergence criterion met
 Total energy in the final basis set = -1104.8451386004
    9   -1104.8451399160      5.51E-09 Convergence criterion met
 Total energy in the final basis set = -1104.8451399160

             Standard Nuclear Orientation (Angstroms)
    I     Atom           X                Y                Z
 ----------------------------------------------------------------
    1      S       1.8677341505    -1.2252665481     0.1607176727
    2      C       3.2426824919    -0.1293847284    -0.0205698889
    3      C       2.8088538841     1.1744328348    -0.1750672218
    4      C       1.4062097827     1.3314163799    -0.1615916200
    5      C       0.6935574992     0.1248199755     0.0255423411
    6      H       0.9022569812     2.2805043839    -0.3109694827
    7      C      -0.6935574992    -0.1248199755     0.0255423411
    8      S      -1.8677341505     1.2252665481     0.1607176727
    9      C      -1.4062097827    -1.3314163799    -0.1615916200
   10      C      -3.2426824919     0.1293847284    -0.0205698889
   11      C      -2.8088538841    -1.1744328348    -0.1750672218
   12      H      -3.4963343186    -2.0054271385    -0.3147366525
   13      H       4.2514153937    -0.5183757104    -0.0296017484
   14      H       3.4963343186     2.0054271385    -0.3147366525
   15      H      -4.2514153937     0.5183757104    -0.0296017484
   16      H      -0.9022569812    -2.2805043839    -0.3109694827
 ----------------------------------------------------------------

    8   -1104.8451405024      6.49E-09 Convergence criterion met
 Total energy in the final basis set = -1104.8451405024
 Final energy is   -1104.84514050243
 **  OPTIMIZATION CONVERGED  **

             Orbital Energies (a.u.) and Symmetries
 --------------------------------------------------------------

 Alpha MOs, Unrestricted
 -- Occupied --
-88.751 -88.751 -10.065 -10.064 -10.057 -10.057 -10.049 -10.049
  1 A     1 B     2 A     2 B     3 B     3 A     4 A     4 B
-10.033 -10.033  -7.810  -7.810  -5.774  -5.774  -5.771  -5.771
  5 B     5 A     6 A     6 B     7 A     7 B     8 B     8 A
 -5.767  -5.767  -0.724  -0.702  -0.606  -0.582  -0.570  -0.536
  9 B     9 A    10 A    10 B    11 A    11 B    12 A    12 B
 -0.447  -0.418  -0.390  -0.370  -0.364  -0.316  -0.261  -0.256
 13 A    13 B    14 A    14 B    15 A    15 B    16 B    16 A
 -0.242  -0.241  -0.240  -0.212  -0.209  -0.195  -0.176  -0.127
 17 A    17 B    18 A    19 A    18 B    19 B    20 A    21 A
 -0.109  -0.102  -0.051   0.048
 20 B    22 A    21 B    23 A

 Beta MOs, Unrestricted
 -- Occupied --
-88.750 -88.750 -10.063 -10.063 -10.054 -10.054 -10.050 -10.050
  1 A     1 B     2 A     2 B     3 B     3 A     4 A     4 B
-10.031 -10.031  -7.809  -7.809  -5.774  -5.774  -5.771  -5.771
  5 B     5 A     6 A     6 B     7 A     7 B     8 B     8 A
 -5.765  -5.765  -0.720  -0.699  -0.601  -0.579  -0.567  -0.532
  9 B     9 A    10 A    10 B    11 A    11 B    12 A    12 B
 -0.441  -0.415  -0.387  -0.367  -0.362  -0.314  -0.259  -0.254
 13 A    13 B    14 A    14 B    15 A    15 B    16 B    16 A
 -0.239  -0.239  -0.231  -0.210  -0.200  -0.192  -0.174  -0.111
 17 B    17 A    18 A    19 A    18 B    19 B    20 A    21 A
 -0.100  -0.093  -0.033
 20 B    22 A    21 B

          Ground-State Mulliken Net Atomic Charges

     Atom                 Charge (a.u.)    Spin (a.u.)
  --------------------------------------------------------
      1 S                    -0.299936       0.100607
      2 C                    -0.100940       0.243763
      3 C                    -0.338771      -0.077871
      4 C                     0.198512       0.267253
      5 C                    -0.268827      -0.018609
      6 H                     0.088747      -0.005345
      7 C                    -0.268827      -0.018609
      8 S                    -0.299936       0.100607
      9 C                     0.198512       0.267253
     10 C                    -0.100940       0.243763
     11 C                    -0.338771      -0.077871
     12 H                     0.073525       0.004037
     13 H                     0.147690      -0.013835
     14 H                     0.073525       0.004037
     15 H                     0.147690      -0.013835
     16 H                     0.088747      -0.005345
  --------------------------------------------------------
  Sum of atomic charges =    -1.000000

                    Cartesian Multipole Moments
 -----------------------------------------------------------------
    Charge (ESU x 10^10)
                -4.8032
    Dipole Moment (Debye)
         X      -0.0000      Y      -0.0000      Z      -0.2366
       Tot       0.2366
    Quadrupole Moments (Debye-Ang)
        XX     -99.6096     XY       0.8303     YY     -83.8931
        XZ       0.0000     YZ      -0.0000     ZZ     -87.2192

 Total job time:  152.49s(wall), 167.28s(cpu)
        *  Thank you very much for using Q-Chem.  Have a nice day.  *
