 Q-Chem 4.4, Q-Chem, Inc., Pleasanton, CA (2016)
 Q-Chem 4.4.1 for Intel X86 EM64T Linux

User input:
--------------------------------------------------------------
$comment
<SCF Fix Strategy>{
    "current_method_id": 6,
    "methods": [
        "increase_iter",
        "rca_diis",
        "gwh",
        "gdm",
        "rca",
        "core+rca",
        "fon"
    ],
    "version": 2.0
}</SCF Fix Strategy>
$end

$molecule
 -1  2
 S           1.83794975       -1.27576249       -0.14871336
 C           3.23937819       -0.19806434       -0.14823333
 C           2.83626844        1.12431397       -0.14890172
 C           1.43724334        1.31134696       -0.14931220
 C           0.69606563        0.10654716       -0.14908151
 H           0.95807640        2.28459073       -0.14860036
 C          -0.69610330       -0.10652413       -0.14907621
 S          -1.80680885        1.07208910        0.62026342
 C          -1.45913175       -1.16856829       -0.68827635
 C          -3.22546971        0.10697414        0.19436476
 C          -2.85010005       -1.03417217       -0.48978804
 H          -3.57249504       -1.76584159       -0.84414489
 H           4.24016475       -0.60708034       -0.14954918
 H           3.54430111        1.94981573       -0.14910914
 H          -4.21510854        0.44315958        0.47088587
 H          -1.00084875       -2.00537284       -1.20455121
$end

$rem
          jobtype = opt
         exchange = b3lyp
            basis = 6-31++g**
     fon_e_thresh = 6
         fon_norb = 9
        fon_t_end = 300
      fon_t_start = 300
   max_scf_cycles = 200
       mem_static = 100
        mem_total = 1500
      occupations = 2
    scf_algorithm = diis
  scf_convergence = 7
        scf_guess = sad
           thresh = 14
$end

$opt
CONSTRAINT
tors 4 5 7 9 150.0
ENDCONSTRAINT
$end

--------------------------------------------------------------

   83   -1104.8419400912      7.26E-08 Convergence criterion met
 Total energy in the final basis set = -1104.8419400912
   10   -1104.8428844939      4.39E-08 Convergence criterion met
 Total energy in the final basis set = -1104.8428844939
   10   -1104.8433655249      6.38E-08 Convergence criterion met
 Total energy in the final basis set = -1104.8433655249
    9   -1104.8434459338      9.16E-08 Convergence criterion met
 Total energy in the final basis set = -1104.8434459338
    8   -1104.8434679311      8.80E-08 Convergence criterion met
 Total energy in the final basis set = -1104.8434679311
    7   -1104.8434720009      8.52E-08 Convergence criterion met
 Total energy in the final basis set = -1104.8434720009
    7   -1104.8434734396      3.45E-08 Convergence criterion met
 Total energy in the final basis set = -1104.8434734396

             Standard Nuclear Orientation (Angstroms)
    I     Atom           X                Y                Z
 ----------------------------------------------------------------
    1      S       1.8663062657    -1.2201866946     0.2348940600
    2      C       3.2417758211    -0.1443524581    -0.0353383054
    3      C       2.8103697655     1.1499150438    -0.2622119702
    4      C       1.4085465134     1.3131514529    -0.2390270371
    5      C       0.6940186847     0.1261996757     0.0396317991
    6      H       0.9042152137     2.2500022852    -0.4517086514
    7      C      -0.6940186847    -0.1261996757     0.0396317991
    8      S      -1.8663062657     1.2201866946     0.2348940600
    9      C      -1.4085465134    -1.3131514529    -0.2390270371
   10      C      -3.2417758211     0.1443524581    -0.0353383054
   11      C      -2.8103697655    -1.1499150438    -0.2622119702
   12      H      -3.4981137705    -1.9665826319    -0.4690297917
   13      H       4.2482518623    -0.5390818122    -0.0488502410
   14      H       3.4981137705     1.9665826319    -0.4690297917
   15      H      -4.2482518623     0.5390818122    -0.0488502410
   16      H      -0.9042152137    -2.2500022852    -0.4517086514
 ----------------------------------------------------------------

    6   -1104.8434737495      4.46E-08 Convergence criterion met
 Total energy in the final basis set = -1104.8434737495
 Final energy is   -1104.84347374948
 **  OPTIMIZATION CONVERGED  **

             Orbital Energies (a.u.) and Symmetries
 --------------------------------------------------------------

 Alpha MOs, Unrestricted
 -- Occupied --
-88.751 -88.751 -10.065 -10.064 -10.057 -10.057 -10.049 -10.049
  1 A     1 B     2 A     2 B     3 B     3 A     4 A     4 B
-10.033 -10.033  -7.810  -7.810  -5.774  -5.774  -5.771  -5.771
  5 B     5 A     6 A     6 B     7 A     7 B     8 B     8 A
 -5.767  -5.767  -0.724  -0.702  -0.606  -0.582  -0.571  -0.536
  9 A     9 B    10 A    10 B    11 A    11 B    12 A    12 B
 -0.447  -0.417  -0.390  -0.370  -0.363  -0.316  -0.261  -0.256
 13 A    13 B    14 A    14 B    15 A    15 B    16 B    16 A
 -0.242  -0.241  -0.240  -0.212  -0.209  -0.194  -0.177  -0.125
 17 A    17 B    18 A    19 A    18 B    19 B    20 A    21 A
 -0.109  -0.103  -0.052   0.049
 20 B    22 A    21 B    23 A

 Beta MOs, Unrestricted
 -- Occupied --
-88.750 -88.750 -10.063 -10.063 -10.054 -10.054 -10.050 -10.050
  1 A     1 B     2 A     2 B     3 B     3 A     4 A     4 B
-10.031 -10.031  -7.809  -7.809  -5.774  -5.774  -5.770  -5.770
  5 B     5 A     6 A     6 B     7 A     7 B     8 B     8 A
 -5.765  -5.765  -0.720  -0.699  -0.601  -0.579  -0.567  -0.532
  9 A     9 B    10 A    10 B    11 A    11 B    12 A    12 B
 -0.440  -0.415  -0.388  -0.367  -0.362  -0.314  -0.259  -0.254
 13 A    13 B    14 A    14 B    15 A    15 B    16 B    16 A
 -0.240  -0.239  -0.231  -0.210  -0.200  -0.191  -0.175  -0.109
 17 B    17 A    18 A    19 A    18 B    19 B    20 A    21 A
 -0.099  -0.094  -0.034
 20 B    22 A    21 B

          Ground-State Mulliken Net Atomic Charges

     Atom                 Charge (a.u.)    Spin (a.u.)
  --------------------------------------------------------
      1 S                    -0.275828       0.102983
      2 C                    -0.097582       0.245251
      3 C                    -0.355016      -0.084131
      4 C                     0.162446       0.263271
      5 C                    -0.238837      -0.017427
      6 H                     0.088639      -0.001824
      7 C                    -0.238837      -0.017427
      8 S                    -0.275828       0.102983
      9 C                     0.162445       0.263271
     10 C                    -0.097582       0.245251
     11 C                    -0.355016      -0.084131
     12 H                     0.072053       0.003975
     13 H                     0.144125      -0.012098
     14 H                     0.072053       0.003975
     15 H                     0.144125      -0.012098
     16 H                     0.088639      -0.001824
  --------------------------------------------------------
  Sum of atomic charges =    -1.000000

                    Cartesian Multipole Moments
 -----------------------------------------------------------------
    Charge (ESU x 10^10)
                -4.8032
    Dipole Moment (Debye)
         X      -0.0000      Y       0.0000      Z      -0.3249
       Tot       0.3249
    Quadrupole Moments (Debye-Ang)
        XX     -99.7770     XY       0.8556     YY     -84.0781
        XZ      -0.0000     YZ       0.0000     ZZ     -87.0999

 Total job time:  96.40s(wall), 107.65s(cpu)
        *  Thank you very much for using Q-Chem.  Have a nice day.  *
