 Q-Chem 4.4, Q-Chem, Inc., Pleasanton, CA (2016)
 Q-Chem 4.4.1 for Intel X86 EM64T Linux

User input:
--------------------------------------------------------------
$molecule
 -1  2
 S           1.83794975       -1.27576249       -0.14871336
 C           3.23937819       -0.19806434       -0.14823333
 C           2.83626844        1.12431397       -0.14890172
 C           1.43724334        1.31134696       -0.14931220
 C           0.69606563        0.10654716       -0.14908151
 H           0.95807640        2.28459073       -0.14860036
 C          -0.69610330       -0.10652413       -0.14907621
 S          -1.82393219        1.18393764       -0.67575435
 C          -1.44713411       -1.24693613        0.22011236
 C          -3.23318838        0.15739217       -0.38311710
 C          -2.84255467       -1.08345800        0.08472743
 H          -3.55705895       -1.86666904        0.32727133
 H           4.24016475       -0.60708034       -0.14954918
 H           3.54430111        1.94981573       -0.14910914
 H          -4.22882531        0.53275648       -0.57463293
 H          -0.97746408       -2.15811976        0.57501989
$end

$rem
         jobtype = opt
        exchange = b3lyp
           basis = 6-31++g**
  max_scf_cycles = 100
      mem_static = 100
       mem_total = 1500
$end

$opt
CONSTRAINT
tors 4 5 7 9 -160.0
ENDCONSTRAINT
$end

--------------------------------------------------------------

   97   -1104.8444659038      9.45E-09 Convergence criterion met
 Total energy in the final basis set = -1104.8444659038
   12   -1104.8448926827      6.99E-09 Convergence criterion met
 Total energy in the final basis set = -1104.8448926827
   13   -1104.8450998297      2.59E-09 Convergence criterion met
 Total energy in the final basis set = -1104.8450998297
   11   -1104.8451299821      4.88E-09 Convergence criterion met
 Total energy in the final basis set = -1104.8451299821
   10   -1104.8451386806      5.90E-09 Convergence criterion met
 Total energy in the final basis set = -1104.8451386806
    9   -1104.8451400035      5.52E-09 Convergence criterion met
 Total energy in the final basis set = -1104.8451400035

             Standard Nuclear Orientation (Angstroms)
    I     Atom           X                Y                Z
 ----------------------------------------------------------------
    1      S       1.8677645155    -1.2252338722    -0.1605800479
    2      C       3.2426662138    -0.1293401165     0.0209840322
    3      C       2.8088093868     1.1744988325     0.1751945604
    4      C       1.4061640354     1.3314678234     0.1614910895
    5      C       0.6935537903     0.1248446468    -0.0256431999
    6      H       0.9021731259     2.2805255370     0.3109333928
    7      C      -0.6935537903    -0.1248446468    -0.0256431999
    8      S      -1.8677645155     1.2252338722    -0.1605800479
    9      C      -1.4061640354    -1.3314678234     0.1614910895
   10      C      -3.2426662138     0.1293401165     0.0209840322
   11      C      -2.8088093868    -1.1744988325     0.1751945604
   12      H      -3.4962620848    -2.0055171776     0.3148584819
   13      H       4.2514417582    -0.5182334686     0.0293985770
   14      H       3.4962620848     2.0055171776     0.3148584819
   15      H      -4.2514417582     0.5182334686     0.0293985770
   16      H      -0.9021731259    -2.2805255370     0.3109333928
 ----------------------------------------------------------------

    8   -1104.8451405778      7.35E-09 Convergence criterion met
 Total energy in the final basis set = -1104.8451405778
 Final energy is   -1104.84514057781
 **  OPTIMIZATION CONVERGED  **

             Orbital Energies (a.u.) and Symmetries
 --------------------------------------------------------------

 Alpha MOs, Unrestricted
 -- Occupied --
-88.751 -88.751 -10.065 -10.064 -10.057 -10.057 -10.049 -10.049
  1 A     1 B     2 A     2 B     3 B     3 A     4 A     4 B
-10.033 -10.033  -7.810  -7.810  -5.774  -5.774  -5.771  -5.771
  5 B     5 A     6 A     6 B     7 A     7 B     8 B     8 A
 -5.767  -5.767  -0.724  -0.702  -0.606  -0.582  -0.570  -0.536
  9 B     9 A    10 A    10 B    11 A    11 B    12 A    12 B
 -0.447  -0.418  -0.390  -0.370  -0.364  -0.316  -0.261  -0.256
 13 A    13 B    14 A    14 B    15 A    15 B    16 B    16 A
 -0.242  -0.241  -0.240  -0.212  -0.209  -0.195  -0.176  -0.127
 17 A    17 B    18 A    19 A    18 B    19 B    20 A    21 A
 -0.109  -0.102  -0.051   0.048
 20 B    22 A    21 B    23 A

 Beta MOs, Unrestricted
 -- Occupied --
-88.750 -88.750 -10.063 -10.063 -10.054 -10.054 -10.050 -10.050
  1 A     1 B     2 A     2 B     3 B     3 A     4 A     4 B
-10.031 -10.031  -7.809  -7.809  -5.774  -5.774  -5.771  -5.771
  5 B     5 A     6 A     6 B     7 A     7 B     8 B     8 A
 -5.765  -5.765  -0.720  -0.699  -0.601  -0.579  -0.567  -0.532
  9 B     9 A    10 A    10 B    11 A    11 B    12 A    12 B
 -0.441  -0.415  -0.387  -0.367  -0.362  -0.314  -0.259  -0.254
 13 A    13 B    14 A    14 B    15 A    15 B    16 B    16 A
 -0.239  -0.239  -0.231  -0.210  -0.200  -0.192  -0.174  -0.111
 17 B    17 A    18 A    19 A    18 B    19 B    20 A    21 A
 -0.100  -0.093  -0.033
 20 B    22 A    21 B

          Ground-State Mulliken Net Atomic Charges

     Atom                 Charge (a.u.)    Spin (a.u.)
  --------------------------------------------------------
      1 S                    -0.299854       0.100598
      2 C                    -0.101108       0.243733
      3 C                    -0.338657      -0.077823
      4 C                     0.198377       0.267240
      5 C                    -0.268714      -0.018588
      6 H                     0.088745      -0.005350
      7 C                    -0.268714      -0.018588
      8 S                    -0.299854       0.100598
      9 C                     0.198377       0.267240
     10 C                    -0.101108       0.243733
     11 C                    -0.338657      -0.077823
     12 H                     0.073531       0.004037
     13 H                     0.147681      -0.013847
     14 H                     0.073531       0.004037
     15 H                     0.147681      -0.013847
     16 H                     0.088745      -0.005350
  --------------------------------------------------------
  Sum of atomic charges =    -1.000000

                    Cartesian Multipole Moments
 -----------------------------------------------------------------
    Charge (ESU x 10^10)
                -4.8032
    Dipole Moment (Debye)
         X      -0.0000      Y      -0.0000      Z       0.2347
       Tot       0.2347
    Quadrupole Moments (Debye-Ang)
        XX     -99.6075     XY       0.8303     YY     -83.8936
        XZ      -0.0000     YZ      -0.0000     ZZ     -87.2190

 Total job time:  88.86s(wall), 98.99s(cpu)
        *  Thank you very much for using Q-Chem.  Have a nice day.  *
