 Q-Chem 4.4, Q-Chem, Inc., Pleasanton, CA (2016)
 Q-Chem 4.4.1 for Intel X86 EM64T Linux

User input:
--------------------------------------------------------------
$comment
<SCF Fix Strategy>{
    "current_method_id": 2,
    "methods": [
        "increase_iter",
        "rca_diis",
        "gwh",
        "gdm",
        "rca",
        "core+rca",
        "fon"
    ],
    "version": 2.0
}</SCF Fix Strategy>
$end

$molecule
 -1  2
 S           1.83794975       -1.27576249       -0.14871336
 C           3.23937819       -0.19806434       -0.14823333
 C           2.83626844        1.12431397       -0.14890172
 C           1.43724334        1.31134696       -0.14931220
 C           0.69606563        0.10654716       -0.14908151
 H           0.95807640        2.28459073       -0.14860036
 C          -0.69610330       -0.10652413       -0.14907621
 S          -1.42677734       -1.41096200        0.84048769
 C          -1.72549730        0.57181178       -0.84268661
 C          -3.05610471       -0.99962343        0.29137196
 C          -3.01855008        0.06644718       -0.58798317
 H          -3.91597582        0.47839423       -1.04371346
 H           4.24016475       -0.60708034       -0.14954918
 H           3.54430111        1.94981573       -0.14910914
 H          -3.90856350       -1.55974536        0.64976705
 H          -1.52262977        1.40384163       -1.50855146
$end

$rem
         jobtype = opt
        exchange = b3lyp
           basis = 6-31++g**
  max_scf_cycles = 200
      mem_static = 100
       mem_total = 1500
   scf_algorithm = diis
       scf_guess = gwh
$end

$opt
CONSTRAINT
tors 4 5 7 9 40.0
ENDCONSTRAINT
$end

--------------------------------------------------------------

   62   -1104.8369610783      8.96E-09 Convergence criterion met
 Total energy in the final basis set = -1104.8369610783
   24   -1104.8388322380      3.68E-09 Convergence criterion met
 Total energy in the final basis set = -1104.8388322380
   13   -1104.8396750538      8.35E-09 Convergence criterion met
 Total energy in the final basis set = -1104.8396750538
   13   -1104.8398719821      4.13E-09 Convergence criterion met
 Total energy in the final basis set = -1104.8398719821
   13   -1104.8399510539      3.05E-09 Convergence criterion met
 Total energy in the final basis set = -1104.8399510539
   11   -1104.8399670551      6.50E-09 Convergence criterion met
 Total energy in the final basis set = -1104.8399670551
   10   -1104.8399735365      6.73E-09 Convergence criterion met
 Total energy in the final basis set = -1104.8399735365
    9   -1104.8399754989      7.39E-09 Convergence criterion met
 Total energy in the final basis set = -1104.8399754989

             Standard Nuclear Orientation (Angstroms)
    I     Atom           X                Y                Z
 ----------------------------------------------------------------
    1      S       1.6519035372    -0.3116941519     1.1518591883
    2      C       3.1826731255    -0.0179397164     0.3231037537
    3      C       2.9645228482     0.2816870339    -1.0107975500
    4      C       1.6055931606     0.3084165607    -1.3881652754
    5      C       0.7072584743    -0.0307737623    -0.3498375959
    6      H       1.2565680127     0.5978751860    -2.3739637471
    7      C      -0.7072584743     0.0307737623    -0.3498375959
    8      S      -1.6519035372     0.3116941519     1.1518591883
    9      C      -1.6055931606    -0.3084165607    -1.3881652754
   10      C      -3.1826731255     0.0179397164     0.3231037537
   11      C      -2.9645228482    -0.2816870339    -1.0107975500
   12      H      -3.7751589185    -0.5136830137    -1.6978282569
   13      H       4.1131376336    -0.0335618087     0.8733426642
   14      H       3.7751589185     0.5136830137    -1.6978282569
   15      H      -4.1131376336     0.0335618087     0.8733426642
   16      H      -1.2565680127    -0.5978751860    -2.3739637471
 ----------------------------------------------------------------

    9   -1104.8399764031      4.53E-09 Convergence criterion met
 Total energy in the final basis set = -1104.8399764031
 Final energy is   -1104.83997640314
 **  OPTIMIZATION CONVERGED  **

             Orbital Energies (a.u.) and Symmetries
 --------------------------------------------------------------

 Alpha MOs, Unrestricted
 -- Occupied --
-88.750 -88.750 -10.065 -10.064 -10.056 -10.056 -10.048 -10.048
  1 B     1 A     2 A     2 B     3 B     3 A     4 B     4 A
-10.034 -10.034  -7.809  -7.809  -5.773  -5.773  -5.770  -5.770
  5 B     5 A     6 B     6 A     7 B     7 A     8 B     8 A
 -5.766  -5.766  -0.723  -0.702  -0.605  -0.581  -0.571  -0.536
  9 A     9 B    10 A    10 B    11 A    12 A    11 B    12 B
 -0.446  -0.413  -0.395  -0.369  -0.362  -0.315  -0.261  -0.253
 13 A    14 A    13 B    14 B    15 A    15 B    16 A    17 A
 -0.247  -0.239  -0.238  -0.209  -0.208  -0.195  -0.178  -0.121
 16 B    17 B    18 A    18 B    19 A    20 A    19 B    20 B
 -0.107  -0.103  -0.053   0.050
 21 B    21 A    22 A    22 B

 Beta MOs, Unrestricted
 -- Occupied --
-88.749 -88.749 -10.063 -10.062 -10.053 -10.053 -10.049 -10.049
  1 B     1 A     2 A     2 B     3 B     3 A     4 B     4 A
-10.032 -10.032  -7.809  -7.808  -5.773  -5.773  -5.770  -5.770
  5 B     5 A     6 B     6 A     7 B     7 A     8 B     8 A
 -5.765  -5.765  -0.719  -0.699  -0.600  -0.577  -0.568  -0.531
  9 A     9 B    10 A    10 B    11 A    12 A    11 B    12 B
 -0.439  -0.411  -0.391  -0.366  -0.361  -0.313  -0.259  -0.251
 13 A    14 A    13 B    14 B    15 A    15 B    16 A    17 A
 -0.245  -0.235  -0.230  -0.206  -0.199  -0.192  -0.175  -0.106
 16 B    18 A    17 B    18 B    19 A    20 A    19 B    20 B
 -0.098  -0.095  -0.035
 21 B    21 A    22 A

          Ground-State Mulliken Net Atomic Charges

     Atom                 Charge (a.u.)    Spin (a.u.)
  --------------------------------------------------------
      1 S                    -0.258215       0.115589
      2 C                    -0.168008       0.239425
      3 C                    -0.347211      -0.068098
      4 C                     0.005696       0.205414
      5 C                    -0.037492       0.023647
      6 H                     0.091923      -0.006193
      7 C                    -0.037492       0.023647
      8 S                    -0.258215       0.115589
      9 C                     0.005696       0.205414
     10 C                    -0.168008       0.239425
     11 C                    -0.347211      -0.068098
     12 H                     0.070017       0.003622
     13 H                     0.143291      -0.013407
     14 H                     0.070017       0.003622
     15 H                     0.143291      -0.013407
     16 H                     0.091923      -0.006193
  --------------------------------------------------------
  Sum of atomic charges =    -1.000000

                    Cartesian Multipole Moments
 -----------------------------------------------------------------
    Charge (ESU x 10^10)
                -4.8032
    Dipole Moment (Debye)
         X       0.0000      Y       0.0000      Z      -0.4152
       Tot       0.4152
    Quadrupole Moments (Debye-Ang)
        XX     -99.6509     XY       1.5309     YY     -86.8351
        XZ       0.0000     YZ      -0.0000     ZZ     -83.6984

 Total job time:  103.65s(wall), 115.22s(cpu)
        *  Thank you very much for using Q-Chem.  Have a nice day.  *
