 Q-Chem 4.4, Q-Chem, Inc., Pleasanton, CA (2016)
 Q-Chem 4.4.1 for Intel X86 EM64T Linux

User input:
--------------------------------------------------------------
$comment
<SCF Fix Strategy>{
    "current_method_id": 1,
    "methods": [
        "increase_iter",
        "rca_diis",
        "gwh",
        "gdm",
        "rca",
        "core+rca",
        "fon"
    ],
    "version": 2.0
}</SCF Fix Strategy>
$end

$molecule
 -1  2
 S           1.83794975       -1.27576249       -0.14871336
 C           3.23937819       -0.19806434       -0.14823333
 C           2.83626844        1.12431397       -0.14890172
 C           1.43724334        1.31134696       -0.14931220
 C           0.69606563        0.10654716       -0.14908151
 H           0.95807640        2.28459073       -0.14860036
 C          -0.69610330       -0.10652413       -0.14907621
 S          -1.37227619       -1.76708715       -0.14879558
 C          -1.76370068        0.82144290       -0.14930002
 C          -3.03188514       -1.15788063       -0.14963541
 C          -3.04274326        0.22453192       -0.14954328
 H          -3.96526719        0.80047726       -0.14963437
 H           4.24016475       -0.60708034       -0.14954918
 H           3.54430111        1.94981573       -0.14910914
 H          -3.86452545       -1.84750176       -0.14808492
 H          -1.59755920        1.89345064       -0.15044792
$end

$rem
         jobtype = opt
        exchange = b3lyp
           basis = 6-31++g**
  max_scf_cycles = 200
      mem_static = 100
       mem_total = 1500
   scf_algorithm = rca_diis
       scf_guess = sad
$end

$opt
CONSTRAINT
tors 4 5 7 9 0.0
ENDCONSTRAINT
$end

--------------------------------------------------------------

  114   -1104.8444996355      2.99E-09 Convergence criterion met
 Total energy in the final basis set = -1104.8444996355
   13   -1104.8447929549      1.34E-09 Convergence criterion met
 Total energy in the final basis set = -1104.8447929549
   11   -1104.8448145756      6.84E-09 Convergence criterion met
 Total energy in the final basis set = -1104.8448145756

             Standard Nuclear Orientation (Angstroms)
    I     Atom           X                Y                Z
 ----------------------------------------------------------------
    1      S       1.6662328385    -0.0000265562     1.1870838383
    2      C       3.1911831377     0.0002315342     0.2956030308
    3      C       2.9552316097    -0.0000219036    -1.0677560698
    4      C       1.5916008201    -0.0001406202    -1.4271340305
    5      C       0.7053055629    -0.0000623791    -0.3220843822
    6      H       1.2385972950     0.0002958942    -2.4525253778
    7      C      -0.7053055629     0.0000623791    -0.3220843822
    8      S      -1.6662328385     0.0000265562     1.1870838383
    9      C      -1.5916008201     0.0001406202    -1.4271340305
   10      C      -3.1911831377    -0.0002315342     0.2956030308
   11      C      -2.9552316097     0.0000219036    -1.0677560698
   12      H      -3.7603770380     0.0001282452    -1.7990612412
   13      H       4.1327228925    -0.0007974885     0.8264994546
   14      H       3.7603770380    -0.0001282452    -1.7990612412
   15      H      -4.1327228925     0.0007974885     0.8264994546
   16      H      -1.2385972950    -0.0002958942    -2.4525253778
 ----------------------------------------------------------------

   10   -1104.8448165714      3.68E-09 Convergence criterion met
 Total energy in the final basis set = -1104.8448165714
 Final energy is   -1104.84481657145
 **  OPTIMIZATION CONVERGED  **

             Orbital Energies (a.u.) and Symmetries
 --------------------------------------------------------------

 Alpha MOs, Unrestricted
 -- Occupied --
-88.751 -88.751 -10.065 -10.064 -10.056 -10.056 -10.049 -10.049
  1 B     1 A     2 A     2 B     3 B     3 A     4 B     4 A
-10.033 -10.033  -7.810  -7.810  -5.774  -5.774  -5.771  -5.771
  5 B     5 A     6 B     6 A     7 B     7 A     8 B     8 A
 -5.767  -5.767  -0.724  -0.702  -0.606  -0.582  -0.571  -0.535
  9 A     9 B    10 A    10 B    11 A    12 A    11 B    12 B
 -0.447  -0.416  -0.393  -0.368  -0.364  -0.315  -0.262  -0.254
 13 A    14 A    13 B    14 B    15 A    15 B    16 A    17 A
 -0.243  -0.241  -0.240  -0.209  -0.208  -0.197  -0.176  -0.128
 16 B    17 B    18 A    19 A    18 B    20 A    19 B    20 B
 -0.111  -0.101  -0.050   0.047
 21 B    21 A    22 A    22 B

 Beta MOs, Unrestricted
 -- Occupied --
-88.750 -88.750 -10.063 -10.063 -10.052 -10.052 -10.050 -10.050
  1 B     1 A     2 A     2 B     3 B     3 A     4 B     4 A
-10.031 -10.031  -7.809  -7.809  -5.774  -5.774  -5.771  -5.771
  5 B     5 A     6 B     6 A     7 B     7 A     8 B     8 A
 -5.765  -5.765  -0.720  -0.699  -0.601  -0.578  -0.568  -0.531
  9 A     9 B    10 A    10 B    11 A    12 A    11 B    12 B
 -0.440  -0.413  -0.390  -0.365  -0.362  -0.313  -0.260  -0.253
 13 A    14 A    13 B    14 B    15 A    15 B    16 A    17 A
 -0.242  -0.237  -0.231  -0.206  -0.200  -0.195  -0.173  -0.112
 16 B    18 A    17 B    18 B    19 A    20 A    19 B    20 B
 -0.100  -0.092  -0.030
 21 B    21 A    22 A

          Ground-State Mulliken Net Atomic Charges

     Atom                 Charge (a.u.)    Spin (a.u.)
  --------------------------------------------------------
      1 S                    -0.328586       0.101248
      2 C                    -0.083913       0.247175
      3 C                    -0.496232      -0.075817
      4 C                     0.243099       0.251804
      5 C                    -0.129904      -0.002947
      6 H                     0.071097      -0.010495
      7 C                    -0.129904      -0.002947
      8 S                    -0.328586       0.101248
      9 C                     0.243099       0.251804
     10 C                    -0.083913       0.247175
     11 C                    -0.496232      -0.075817
     12 H                     0.069291       0.004150
     13 H                     0.155147      -0.015119
     14 H                     0.069291       0.004150
     15 H                     0.155147      -0.015119
     16 H                     0.071097      -0.010495
  --------------------------------------------------------
  Sum of atomic charges =    -1.000000

                    Cartesian Multipole Moments
 -----------------------------------------------------------------
    Charge (ESU x 10^10)
                -4.8032
    Dipole Moment (Debye)
         X      -0.0000      Y      -0.0000      Z      -0.4500
       Tot       0.4500
    Quadrupole Moments (Debye-Ang)
        XX     -99.2196     XY      -0.0115     YY     -87.2736
        XZ       0.0000     YZ       0.0000     ZZ     -83.3657

 Total job time:  114.55s(wall), 126.34s(cpu)
        *  Thank you very much for using Q-Chem.  Have a nice day.  *
