 Q-Chem 4.4, Q-Chem, Inc., Pleasanton, CA (2016)
 Q-Chem 4.4.1 for Intel X86 EM64T Linux

User input:
--------------------------------------------------------------
$comment
<SCF Fix Strategy>{
    "current_method_id": 1,
    "methods": [
        "increase_iter",
        "rca_diis",
        "gwh",
        "gdm",
        "rca",
        "core+rca",
        "fon"
    ],
    "version": 2.0
}</SCF Fix Strategy>
$end

$molecule
 -1  2
 S           1.83794975       -1.27576249       -0.14871336
 C           3.23937819       -0.19806434       -0.14823333
 C           2.83626844        1.12431397       -0.14890172
 C           1.43724334        1.31134696       -0.14931220
 C           0.69606563        0.10654716       -0.14908151
 H           0.95807640        2.28459073       -0.14860036
 C          -0.69610330       -0.10652413       -0.14907621
 S          -1.40345483       -1.56339077       -0.91840893
 C          -1.74184989        0.67868723        0.39013080
 C          -3.04583135       -1.06676721       -0.49249863
 C          -3.02894930        0.13441317        0.19165269
 H          -3.93711084        0.61652611        0.54601573
 H           4.24016475       -0.60708034       -0.14954918
 H           3.54430111        1.94981573       -0.14910914
 H          -3.88961932       -1.68355841       -0.76901275
 H          -1.55482450        1.61425616        0.90640320
$end

$rem
         jobtype = opt
        exchange = b3lyp
           basis = 6-31++g**
  max_scf_cycles = 200
      mem_static = 100
       mem_total = 1500
   scf_algorithm = rca_diis
       scf_guess = sad
$end

$opt
CONSTRAINT
tors 4 5 7 9 -30.0
ENDCONSTRAINT
$end

--------------------------------------------------------------

  120   -1104.8402789758      4.62E-09 Convergence criterion met
 Total energy in the final basis set = -1104.8402789758
   18   -1104.8414893760      3.91E-09 Convergence criterion met
 Total energy in the final basis set = -1104.8414893760
   13   -1104.8419595654      5.69E-09 Convergence criterion met
 Total energy in the final basis set = -1104.8419595654
   12   -1104.8420680729      8.48E-09 Convergence criterion met
 Total energy in the final basis set = -1104.8420680729
   12   -1104.8421100037      7.20E-09 Convergence criterion met
 Total energy in the final basis set = -1104.8421100037
   10   -1104.8421186159      9.39E-09 Convergence criterion met
 Total energy in the final basis set = -1104.8421186159
   10   -1104.8421225434      4.22E-09 Convergence criterion met
 Total energy in the final basis set = -1104.8421225434
    9   -1104.8421237728      5.31E-09 Convergence criterion met
 Total energy in the final basis set = -1104.8421237728

             Standard Nuclear Orientation (Angstroms)
    I     Atom           X                Y                Z
 ----------------------------------------------------------------
    1      S       1.6579538389     0.2384720339     1.1671877854
    2      C       3.1863690546     0.0168467525     0.3105225599
    3      C       2.9602154422    -0.2101626113    -1.0360408118
    4      C       1.5990731420    -0.2317763044    -1.4051060377
    5      C       0.7062498451     0.0240816305    -0.3372349577
    6      H       1.2472763601    -0.4575765121    -2.4062156629
    7      C      -0.7062498451    -0.0240816305    -0.3372349577
    8      S      -1.6579538389    -0.2384720339     1.1671877854
    9      C      -1.5990731420     0.2317763044    -1.4051060377
   10      C      -3.1863690546    -0.0168467525     0.3105225599
   11      C      -2.9602154422     0.2101626113    -1.0360408118
   12      H      -3.7685707426     0.3855524056    -1.7422739180
   13      H       4.1219373409     0.0302983523     0.8519107255
   14      H       3.7685707426    -0.3855524056    -1.7422739180
   15      H      -4.1219373409    -0.0302983523     0.8519107255
   16      H      -1.2472763601     0.4575765121    -2.4062156629
 ----------------------------------------------------------------

    9   -1104.8421244261      4.52E-09 Convergence criterion met
 Total energy in the final basis set = -1104.8421244261
 Final energy is   -1104.84212442614
 **  OPTIMIZATION CONVERGED  **

             Orbital Energies (a.u.) and Symmetries
 --------------------------------------------------------------

 Alpha MOs, Unrestricted
 -- Occupied --
-88.750 -88.750 -10.065 -10.064 -10.056 -10.056 -10.048 -10.048
  1 B     1 A     2 A     2 B     3 B     3 A     4 B     4 A
-10.033 -10.033  -7.809  -7.809  -5.774  -5.774  -5.770  -5.770
  5 B     5 A     6 B     6 A     7 B     7 A     8 B     8 A
 -5.767  -5.767  -0.724  -0.702  -0.605  -0.581  -0.571  -0.536
  9 A     9 B    10 A    10 B    11 A    12 A    11 B    12 B
 -0.447  -0.414  -0.394  -0.369  -0.363  -0.315  -0.262  -0.253
 13 A    14 A    13 B    14 B    15 A    15 B    16 A    17 A
 -0.246  -0.239  -0.239  -0.209  -0.208  -0.196  -0.177  -0.124
 16 B    17 B    18 A    19 A    18 B    20 A    19 B    20 B
 -0.109  -0.102  -0.052   0.049
 21 B    21 A    22 A    22 B

 Beta MOs, Unrestricted
 -- Occupied --
-88.750 -88.750 -10.063 -10.062 -10.053 -10.053 -10.049 -10.049
  1 B     1 A     2 A     2 B     3 B     3 A     4 B     4 A
-10.031 -10.031  -7.809  -7.809  -5.773  -5.773  -5.770  -5.770
  5 B     5 A     6 B     6 A     7 B     7 A     8 B     8 A
 -5.765  -5.765  -0.720  -0.699  -0.600  -0.578  -0.568  -0.531
  9 A     9 B    10 A    10 B    11 A    12 A    11 B    12 B
 -0.440  -0.412  -0.391  -0.366  -0.361  -0.313  -0.260  -0.252
 13 A    14 A    13 B    14 B    15 A    15 B    16 A    17 A
 -0.244  -0.236  -0.230  -0.206  -0.199  -0.194  -0.174  -0.109
 16 B    18 A    17 B    18 B    19 A    20 A    19 B    20 B
 -0.099  -0.094  -0.033
 21 B    21 A    22 A

          Ground-State Mulliken Net Atomic Charges

     Atom                 Charge (a.u.)    Spin (a.u.)
  --------------------------------------------------------
      1 S                    -0.279899       0.111561
      2 C                    -0.149782       0.239596
      3 C                    -0.361561      -0.068049
      4 C                     0.085344       0.217386
      5 C                    -0.093137       0.017560
      6 H                     0.085861      -0.007535
      7 C                    -0.093137       0.017560
      8 S                    -0.279899       0.111561
      9 C                     0.085344       0.217386
     10 C                    -0.149782       0.239596
     11 C                    -0.361561      -0.068049
     12 H                     0.069310       0.003899
     13 H                     0.143865      -0.014418
     14 H                     0.069310       0.003899
     15 H                     0.143865      -0.014418
     16 H                     0.085861      -0.007535
  --------------------------------------------------------
  Sum of atomic charges =    -1.000000

                    Cartesian Multipole Moments
 -----------------------------------------------------------------
    Charge (ESU x 10^10)
                -4.8032
    Dipole Moment (Debye)
         X       0.0000      Y       0.0000      Z      -0.4165
       Tot       0.4165
    Quadrupole Moments (Debye-Ang)
        XX     -99.4506     XY      -1.1732     YY     -87.0129
        XZ      -0.0000     YZ       0.0000     ZZ     -83.6016

 Total job time:  168.30s(wall), 185.42s(cpu)
        *  Thank you very much for using Q-Chem.  Have a nice day.  *
