 Q-Chem 4.4, Q-Chem, Inc., Pleasanton, CA (2016)
 Q-Chem 4.4.1 for Intel X86 EM64T Linux

User input:
--------------------------------------------------------------
$comment
<SCF Fix Strategy>{
    "current_method_id": 1,
    "methods": [
        "increase_iter",
        "rca_diis",
        "gwh",
        "gdm",
        "rca",
        "core+rca",
        "fon"
    ],
    "version": 2.0
}</SCF Fix Strategy>
$end

$molecule
 -1  2
 S           1.83794975       -1.27576249       -0.14871336
 C           3.23937819       -0.19806434       -0.14823333
 C           2.83626844        1.12431397       -0.14890172
 C           1.43724334        1.31134696       -0.14931220
 C           0.69606563        0.10654716       -0.14908151
 H           0.95807640        2.28459073       -0.14860036
 C          -0.69610330       -0.10652413       -0.14907621
 S          -1.75478083        0.73209902       -1.32831009
 C          -1.49560481       -0.93022603        0.67748262
 C          -3.20241746       -0.04366660       -0.67411514
 C          -2.87323022       -0.88302237        0.37388295
 H          -3.61958120       -1.45814541        0.91698252
 H           4.24016475       -0.60708034       -0.14954918
 H           3.54430111        1.94981573       -0.14910914
 H          -4.17299431        0.16795382       -1.10080821
 H          -1.07247612       -1.53730614        1.47071699
$end

$rem
         jobtype = opt
        exchange = b3lyp
           basis = 6-31++g**
  max_scf_cycles = 200
      mem_static = 100
       mem_total = 1500
   scf_algorithm = rca_diis
       scf_guess = sad
$end

$opt
CONSTRAINT
tors 4 5 7 9 -130.0
ENDCONSTRAINT
$end

--------------------------------------------------------------

  170   -1104.8341790442      5.84E-09 Convergence criterion met
 Total energy in the final basis set = -1104.8341790442
   13   -1104.8364449538      6.91E-09 Convergence criterion met
 Total energy in the final basis set = -1104.8364449538
   19   -1104.8378344495      5.25E-09 Convergence criterion met
 Total energy in the final basis set = -1104.8378344495
   13   -1104.8381960958      7.58E-09 Convergence criterion met
 Total energy in the final basis set = -1104.8381960958
   12   -1104.8382959023      8.11E-09 Convergence criterion met
 Total energy in the final basis set = -1104.8382959023
   11   -1104.8383191168      4.32E-09 Convergence criterion met
 Total energy in the final basis set = -1104.8383191168
   10   -1104.8383242384      5.11E-09 Convergence criterion met
 Total energy in the final basis set = -1104.8383242384
    9   -1104.8383258873      9.14E-09 Convergence criterion met
 Total energy in the final basis set = -1104.8383258873

             Standard Nuclear Orientation (Angstroms)
    I     Atom           X                Y                Z
 ----------------------------------------------------------------
    1      S       1.8641811512    -1.2016014185    -0.3774168545
    2      C       3.2398704368    -0.1867265298     0.0615853534
    3      C       2.8140779721     1.0768209627     0.4316364596
    4      C       1.4148239374     1.2576798873     0.3923495048
    5      C       0.6955377489     0.1314222725    -0.0614280442
    6      H       0.9107504284     2.1618783397     0.7179788812
    7      C      -0.6955377489    -0.1314222725    -0.0614280442
    8      S      -1.8641811512     1.2016014185    -0.3774168545
    9      C      -1.4148239374    -1.2576798873     0.3923495048
   10      C      -3.2398704368     0.1867265298     0.0615853534
   11      C      -2.8140779721    -1.0768209627     0.4316364596
   12      H      -3.5015501166    -1.8502106195     0.7665352516
   13      H       4.2396965855    -0.5979341958     0.0803238950
   14      H       3.5015501166     1.8502106195     0.7665352516
   15      H      -4.2396965855     0.5979341958     0.0803238950
   16      H      -0.9107504284    -2.1618783397     0.7179788812
 ----------------------------------------------------------------

    8   -1104.8383263132      6.78E-09 Convergence criterion met
 Total energy in the final basis set = -1104.8383263132
 Final energy is   -1104.83832631322
 **  OPTIMIZATION CONVERGED  **

             Orbital Energies (a.u.) and Symmetries
 --------------------------------------------------------------

 Alpha MOs, Unrestricted
 -- Occupied --
-88.750 -88.750 -10.065 -10.065 -10.057 -10.057 -10.049 -10.049
  1 A     1 B     2 A     2 B     3 B     3 A     4 A     4 B
-10.035 -10.035  -7.809  -7.809  -5.774  -5.774  -5.770  -5.770
  5 B     5 A     6 A     6 B     7 A     7 B     8 B     8 A
 -5.767  -5.767  -0.724  -0.702  -0.606  -0.581  -0.572  -0.537
  9 B     9 A    10 A    10 B    11 A    11 B    12 A    12 B
 -0.447  -0.416  -0.393  -0.370  -0.363  -0.316  -0.261  -0.256
 13 A    13 B    14 A    14 B    15 A    15 B    16 B    16 A
 -0.244  -0.241  -0.239  -0.212  -0.210  -0.193  -0.179  -0.119
 17 A    17 B    18 A    19 A    18 B    19 B    20 A    21 A
 -0.107  -0.105  -0.056   0.052
 20 B    22 A    21 B    23 A

 Beta MOs, Unrestricted
 -- Occupied --
-88.750 -88.750 -10.064 -10.063 -10.054 -10.054 -10.050 -10.050
  1 A     1 B     2 A     2 B     3 B     3 A     4 A     4 B
-10.033 -10.033  -7.809  -7.809  -5.773  -5.773  -5.770  -5.770
  5 B     5 A     6 A     6 B     7 A     7 B     8 B     8 A
 -5.765  -5.765  -0.720  -0.699  -0.600  -0.578  -0.568  -0.533
  9 B     9 A    10 A    10 B    11 A    11 B    12 A    12 B
 -0.440  -0.413  -0.390  -0.367  -0.361  -0.315  -0.259  -0.254
 13 A    13 B    14 A    14 B    15 A    15 B    16 B    16 A
 -0.240  -0.240  -0.231  -0.209  -0.201  -0.190  -0.176  -0.104
 17 A    17 B    18 A    19 A    18 B    19 B    20 A    21 A
 -0.098  -0.096  -0.038
 20 B    22 A    21 B

          Ground-State Mulliken Net Atomic Charges

     Atom                 Charge (a.u.)    Spin (a.u.)
  --------------------------------------------------------
      1 S                    -0.206124       0.101008
      2 C                    -0.121314       0.251440
      3 C                    -0.340688      -0.095829
      4 C                    -0.032340       0.252498
      5 C                    -0.087905      -0.015287
      6 H                     0.084557       0.007564
      7 C                    -0.087905      -0.015287
      8 S                    -0.206124       0.101008
      9 C                    -0.032340       0.252498
     10 C                    -0.121314       0.251440
     11 C                    -0.340688      -0.095829
     12 H                     0.067945       0.004970
     13 H                     0.135870      -0.006365
     14 H                     0.067945       0.004970
     15 H                     0.135870      -0.006365
     16 H                     0.084557       0.007564
  --------------------------------------------------------
  Sum of atomic charges =    -1.000000

                    Cartesian Multipole Moments
 -----------------------------------------------------------------
    Charge (ESU x 10^10)
                -4.8032
    Dipole Moment (Debye)
         X       0.0000      Y      -0.0000      Z       0.4615
       Tot       0.4615
    Quadrupole Moments (Debye-Ang)
        XX    -100.3219     XY       0.9173     YY     -84.5084
        XZ       0.0000     YZ       0.0000     ZZ     -86.8438

 Total job time:  188.40s(wall), 208.50s(cpu)
        *  Thank you very much for using Q-Chem.  Have a nice day.  *
