 Q-Chem 4.4, Q-Chem, Inc., Pleasanton, CA (2016)
 Q-Chem 4.4.1 for Intel X86 EM64T Linux

User input:
--------------------------------------------------------------
$comment
<SCF Fix Strategy>{
    "current_method_id": 1,
    "methods": [
        "increase_iter",
        "rca_diis",
        "gwh",
        "gdm",
        "rca",
        "core+rca",
        "fon"
    ],
    "version": 2.0
}</SCF Fix Strategy>
$end

$molecule
 -1  2
 S           1.83794975       -1.27576249       -0.14871336
 C           3.23937819       -0.19806434       -0.14823333
 C           2.83626844        1.12431397       -0.14890172
 C           1.43724334        1.31134696       -0.14931220
 C           0.69606563        0.10654716       -0.14908151
 H           0.95807640        2.28459073       -0.14860036
 C          -0.69610330       -0.10652413       -0.14907621
 S          -1.78348634        0.91966032       -1.13863320
 C          -1.47548434       -1.06169284        0.54454107
 C          -3.21519634        0.03983036       -0.58950583
 C          -2.86049927       -0.96620618        0.28984781
 H          -3.59363006       -1.62770971        0.74558431
 H           4.24016475       -0.60708034       -0.14954918
 H           3.54430111        1.94981573       -0.14910914
 H          -4.19616436        0.31934653       -0.94789394
 H          -1.03304348       -1.79495832        1.21040346
$end

$rem
         jobtype = opt
        exchange = b3lyp
           basis = 6-31++g**
  max_scf_cycles = 200
      mem_static = 100
       mem_total = 1500
   scf_algorithm = rca_diis
       scf_guess = sad
$end

$opt
CONSTRAINT
tors 4 5 7 9 -140.0
ENDCONSTRAINT
$end

--------------------------------------------------------------

  165   -1104.8384511557      1.84E-09 Convergence criterion met
 Total energy in the final basis set = -1104.8384511557
   13   -1104.8400618053      5.16E-09 Convergence criterion met
 Total energy in the final basis set = -1104.8400618053
   13   -1104.8409506012      8.68E-09 Convergence criterion met
 Total energy in the final basis set = -1104.8409506012
   18   -1104.8411451823      8.25E-09 Convergence criterion met
 Total energy in the final basis set = -1104.8411451823
   12   -1104.8411934733      4.86E-09 Convergence criterion met
 Total energy in the final basis set = -1104.8411934733
   10   -1104.8412018577      5.18E-09 Convergence criterion met
 Total energy in the final basis set = -1104.8412018577
    9   -1104.8412047151      8.26E-09 Convergence criterion met
 Total energy in the final basis set = -1104.8412047151

             Standard Nuclear Orientation (Angstroms)
    I     Atom           X                Y                Z
 ----------------------------------------------------------------
    1      S       1.8650346016    -1.2124649399    -0.3072151975
    2      C       3.2407191068    -0.1638897650     0.0498103461
    3      C       2.8119666466     1.1170144428     0.3482174527
    4      C       1.4113582110     1.2885980333     0.3152523589
    5      C       0.6946476416     0.1284476849    -0.0525370299
    6      H       0.9068609007     2.2100894726     0.5869196258
    7      C      -0.6946476416    -0.1284476849    -0.0525370299
    8      S      -1.8650346016     1.2124649399    -0.3072151975
    9      C      -1.4113582110    -1.2885980333     0.3152523589
   10      C      -3.2407191068     0.1638897650     0.0498103461
   11      C      -2.8119666466    -1.1170144428     0.3482174527
   12      H      -3.4996906895    -1.9142741558     0.6206394650
   13      H       4.2441873968    -0.5661138751     0.0668868926
   14      H       3.4996906895     1.9142741558     0.6206394650
   15      H      -4.2441873968     0.5661138751     0.0668868926
   16      H      -0.9068609007    -2.2100894726     0.5869196258
 ----------------------------------------------------------------

    8   -1104.8412053099      6.93E-09 Convergence criterion met
 Total energy in the final basis set = -1104.8412053099
 Final energy is   -1104.84120530985
 **  OPTIMIZATION CONVERGED  **

             Orbital Energies (a.u.) and Symmetries
 --------------------------------------------------------------

 Alpha MOs, Unrestricted
 -- Occupied --
-88.751 -88.751 -10.065 -10.065 -10.057 -10.057 -10.049 -10.049
  1 A     1 B     2 A     2 B     3 B     3 A     4 A     4 B
-10.034 -10.034  -7.810  -7.810  -5.774  -5.774  -5.771  -5.771
  5 B     5 A     6 A     6 B     7 A     7 B     8 B     8 A
 -5.767  -5.767  -0.724  -0.702  -0.606  -0.581  -0.571  -0.537
  9 B     9 A    10 A    10 B    11 A    11 B    12 A    12 B
 -0.447  -0.417  -0.391  -0.370  -0.363  -0.316  -0.261  -0.256
 13 A    13 B    14 A    14 B    15 A    15 B    16 B    16 A
 -0.243  -0.241  -0.239  -0.212  -0.209  -0.194  -0.178  -0.122
 17 A    17 B    18 A    19 A    18 B    19 B    20 A    21 A
 -0.108  -0.104  -0.054   0.050
 20 B    22 A    21 B    23 A

 Beta MOs, Unrestricted
 -- Occupied --
-88.750 -88.750 -10.063 -10.063 -10.054 -10.054 -10.050 -10.050
  1 A     1 B     2 A     2 B     3 B     3 A     4 A     4 B
-10.032 -10.032  -7.809  -7.809  -5.774  -5.774  -5.770  -5.770
  5 B     5 A     6 A     6 B     7 A     7 B     8 B     8 A
 -5.765  -5.765  -0.720  -0.699  -0.601  -0.578  -0.567  -0.532
  9 B     9 A    10 A    10 B    11 A    11 B    12 A    12 B
 -0.440  -0.414  -0.389  -0.367  -0.361  -0.314  -0.259  -0.254
 13 A    13 B    14 A    14 B    15 A    15 B    16 B    16 A
 -0.240  -0.239  -0.231  -0.210  -0.200  -0.191  -0.175  -0.107
 17 B    17 A    18 A    19 A    18 B    19 B    20 A    21 A
 -0.099  -0.095  -0.036
 20 B    22 A    21 B

          Ground-State Mulliken Net Atomic Charges

     Atom                 Charge (a.u.)    Spin (a.u.)
  --------------------------------------------------------
      1 S                    -0.239078       0.102600
      2 C                    -0.132849       0.248968
      3 C                    -0.333759      -0.090638
      4 C                     0.032165       0.258839
      5 C                    -0.118473      -0.016983
      6 H                     0.086783       0.002524
      7 C                    -0.118473      -0.016983
      8 S                    -0.239078       0.102600
      9 C                     0.032165       0.258839
     10 C                    -0.132849       0.248968
     11 C                    -0.333759      -0.090638
     12 H                     0.068450       0.004187
     13 H                     0.136761      -0.009496
     14 H                     0.068450       0.004187
     15 H                     0.136761      -0.009496
     16 H                     0.086783       0.002524
  --------------------------------------------------------
  Sum of atomic charges =    -1.000000

                    Cartesian Multipole Moments
 -----------------------------------------------------------------
    Charge (ESU x 10^10)
                -4.8032
    Dipole Moment (Debye)
         X      -0.0000      Y       0.0000      Z       0.4025
       Tot       0.4025
    Quadrupole Moments (Debye-Ang)
        XX    -100.0238     XY       0.8764     YY     -84.2909
        XZ       0.0000     YZ       0.0000     ZZ     -86.9601

 Total job time:  175.21s(wall), 192.58s(cpu)
        *  Thank you very much for using Q-Chem.  Have a nice day.  *
