 Q-Chem 4.4, Q-Chem, Inc., Pleasanton, CA (2016)
 Q-Chem 4.4.1 for Intel X86 EM64T Linux

User input:
--------------------------------------------------------------
$comment
<SCF Fix Strategy>{
    "current_method_id": 1,
    "methods": [
        "increase_iter",
        "rca_diis",
        "gwh",
        "gdm",
        "rca",
        "core+rca",
        "fon"
    ],
    "version": 2.0
}</SCF Fix Strategy>
$end

$molecule
 -1  2
 S           1.83794975       -1.27576249       -0.14871336
 C           3.23937819       -0.19806434       -0.14823333
 C           2.83626844        1.12431397       -0.14890172
 C           1.43724334        1.31134696       -0.14931220
 C           0.69606563        0.10654716       -0.14908151
 H           0.95807640        2.28459073       -0.14860036
 C          -0.69610330       -0.10652413       -0.14907621
 S          -1.38630672       -1.67542733       -0.67523343
 C          -1.75386830        0.75720915        0.21968527
 C          -3.03817325       -1.11680113       -0.38418548
 C          -3.03654216        0.18402085        0.08383361
 H          -3.95260235        0.71773938        0.32620047
 H           4.24016475       -0.60708034       -0.14954918
 H           3.54430111        1.94981573       -0.14910914
 H          -3.87580444       -1.77381744       -0.57279391
 H          -1.57834597        1.76793289        0.57243777
$end

$rem
         jobtype = opt
        exchange = b3lyp
           basis = 6-31++g**
  max_scf_cycles = 200
      mem_static = 100
       mem_total = 1500
   scf_algorithm = rca_diis
       scf_guess = sad
$end

$opt
CONSTRAINT
tors 4 5 7 9 -20.0
ENDCONSTRAINT
$end

--------------------------------------------------------------

  106   -1104.8426604141      8.52E-09 Convergence criterion met
 Total energy in the final basis set = -1104.8426604141
   12   -1104.8433141076      6.74E-09 Convergence criterion met
 Total energy in the final basis set = -1104.8433141076
   12   -1104.8435212164      7.63E-09 Convergence criterion met
 Total energy in the final basis set = -1104.8435212164
   18   -1104.8436191509      3.46E-09 Convergence criterion met
 Total energy in the final basis set = -1104.8436191509
   11   -1104.8436381313      8.43E-09 Convergence criterion met
 Total energy in the final basis set = -1104.8436381313
   10   -1104.8436424061      6.46E-09 Convergence criterion met
 Total energy in the final basis set = -1104.8436424061
   10   -1104.8436442692      3.41E-09 Convergence criterion met
 Total energy in the final basis set = -1104.8436442692

             Standard Nuclear Orientation (Angstroms)
    I     Atom           X                Y                Z
 ----------------------------------------------------------------
    1      S       1.6621665849     0.1645214923     1.1777505845
    2      C       3.1889008979     0.0150120076     0.3018766970
    3      C       2.9573166976    -0.1401431603    -1.0536603248
    4      C       1.5948025189    -0.1556784618    -1.4174163582
    5      C       0.7056753099     0.0160638662    -0.3289119662
    6      H       1.2419763555    -0.3136097792    -2.4308906887
    7      C      -0.7056753099    -0.0160638662    -0.3289119662
    8      S      -1.6621665849    -0.1645214923     1.1777505845
    9      C      -1.5948025189     0.1556784618    -1.4174163582
   10      C      -3.1889008979    -0.0150120076     0.3018766970
   11      C      -2.9573166976     0.1401431603    -1.0536603248
   12      H      -3.7640566198     0.2590319611    -1.7734039677
   13      H       4.1277265192     0.0238881587     0.8375551050
   14      H       3.7640566198    -0.2590319611    -1.7734039677
   15      H      -4.1277265192    -0.0238881587     0.8375551050
   16      H      -1.2419763555     0.3136097792    -2.4308906887
 ----------------------------------------------------------------

    9   -1104.8436449739      4.02E-09 Convergence criterion met
 Total energy in the final basis set = -1104.8436449739
 Final energy is   -1104.84364497389
 **  OPTIMIZATION CONVERGED  **

             Orbital Energies (a.u.) and Symmetries
 --------------------------------------------------------------

 Alpha MOs, Unrestricted
 -- Occupied --
-88.751 -88.751 -10.065 -10.064 -10.056 -10.056 -10.049 -10.049
  1 B     1 A     2 A     2 B     3 B     3 A     4 B     4 A
-10.033 -10.033  -7.810  -7.810  -5.774  -5.774  -5.771  -5.771
  5 B     5 A     6 B     6 A     7 B     7 A     8 B     8 A
 -5.767  -5.767  -0.724  -0.702  -0.605  -0.582  -0.571  -0.535
  9 A     9 B    10 A    10 B    11 A    12 A    11 B    12 B
 -0.447  -0.415  -0.393  -0.368  -0.364  -0.315  -0.262  -0.254
 13 A    14 A    13 B    14 B    15 A    15 B    16 A    17 A
 -0.245  -0.240  -0.239  -0.209  -0.208  -0.197  -0.176  -0.126
 16 B    17 B    18 A    19 A    18 B    20 A    19 B    20 B
 -0.110  -0.101  -0.051   0.048
 21 B    21 A    22 A    22 B

 Beta MOs, Unrestricted
 -- Occupied --
-88.750 -88.750 -10.063 -10.063 -10.053 -10.053 -10.049 -10.049
  1 B     1 A     2 A     2 B     3 B     3 A     4 B     4 A
-10.031 -10.031  -7.809  -7.809  -5.774  -5.774  -5.770  -5.770
  5 B     5 A     6 B     6 A     7 B     7 A     8 B     8 A
 -5.765  -5.765  -0.720  -0.699  -0.600  -0.578  -0.568  -0.531
  9 A     9 B    10 A    10 B    11 A    12 A    11 B    12 B
 -0.440  -0.413  -0.390  -0.366  -0.362  -0.313  -0.260  -0.252
 13 A    14 A    13 B    14 B    15 A    15 B    16 A    17 A
 -0.243  -0.237  -0.230  -0.206  -0.200  -0.194  -0.174  -0.111
 16 B    18 A    17 B    18 B    19 A    20 A    19 B    20 B
 -0.100  -0.093  -0.032
 21 B    21 A    22 A

          Ground-State Mulliken Net Atomic Charges

     Atom                 Charge (a.u.)    Spin (a.u.)
  --------------------------------------------------------
      1 S                    -0.299741       0.107827
      2 C                    -0.132610       0.240731
      3 C                    -0.371893      -0.069041
      4 C                     0.132033       0.229220
      5 C                    -0.120534       0.011265
      6 H                     0.079710      -0.009029
      7 C                    -0.120534       0.011265
      8 S                    -0.299741       0.107827
      9 C                     0.132033       0.229220
     10 C                    -0.132610       0.240731
     11 C                    -0.371893      -0.069041
     12 H                     0.068433       0.004080
     13 H                     0.144602      -0.015054
     14 H                     0.068433       0.004080
     15 H                     0.144602      -0.015054
     16 H                     0.079710      -0.009029
  --------------------------------------------------------
  Sum of atomic charges =    -1.000000

                    Cartesian Multipole Moments
 -----------------------------------------------------------------
    Charge (ESU x 10^10)
                -4.8032
    Dipole Moment (Debye)
         X      -0.0000      Y      -0.0000      Z      -0.4229
       Tot       0.4229
    Quadrupole Moments (Debye-Ang)
        XX     -99.3054     XY      -0.8314     YY     -87.1494
        XZ      -0.0000     YZ       0.0000     ZZ     -83.4963

 Total job time:  148.04s(wall), 163.32s(cpu)
        *  Thank you very much for using Q-Chem.  Have a nice day.  *
