 Q-Chem 4.4, Q-Chem, Inc., Pleasanton, CA (2016)
 Q-Chem 4.4.1 for Intel X86 EM64T Linux

User input:
--------------------------------------------------------------
$comment
<SCF Fix Strategy>{
    "current_method_id": 1,
    "methods": [
        "increase_iter",
        "rca_diis",
        "gwh",
        "gdm",
        "rca",
        "core+rca",
        "fon"
    ],
    "version": 2.0
}</SCF Fix Strategy>
$end

$molecule
 -1  2
 S           1.83794975       -1.27576249       -0.14871336
 C           3.23937819       -0.19806434       -0.14823333
 C           2.83626844        1.12431397       -0.14890172
 C           1.43724334        1.31134696       -0.14931220
 C           0.69606563        0.10654716       -0.14908151
 H           0.95807640        2.28459073       -0.14860036
 C          -0.69610330       -0.10652413       -0.14907621
 S          -1.45548286       -1.22340070        1.03016458
 C          -1.70537683        0.44034498       -0.97562817
 C          -3.06888359       -0.91612648        0.37598128
 C          -3.00581913       -0.01673663       -0.67201831
 H          -3.89002468        0.30882993       -1.21511167
 H           4.24016475       -0.60708034       -0.14954918
 H           3.54430111        1.94981573       -0.14910914
 H          -3.93173355       -1.40835265        0.80268132
 H          -1.48319712        1.14618946       -1.76886499
$end

$rem
         jobtype = opt
        exchange = b3lyp
           basis = 6-31++g**
  max_scf_cycles = 200
      mem_static = 100
       mem_total = 1500
   scf_algorithm = rca_diis
       scf_guess = sad
$end

$opt
CONSTRAINT
tors 4 5 7 9 50.0
ENDCONSTRAINT
$end

--------------------------------------------------------------

  108   -1104.8329419663      3.55E-09 Convergence criterion met
 Total energy in the final basis set = -1104.8329419663
   19   -1104.8354593814      9.39E-09 Convergence criterion met
 Total energy in the final basis set = -1104.8354593814
   14   -1104.8367311319      3.88E-09 Convergence criterion met
 Total energy in the final basis set = -1104.8367311319
   13   -1104.8370789716      6.91E-09 Convergence criterion met
 Total energy in the final basis set = -1104.8370789716
   13   -1104.8372168875      4.82E-09 Convergence criterion met
 Total energy in the final basis set = -1104.8372168875
   11   -1104.8372471869      9.73E-09 Convergence criterion met
 Total energy in the final basis set = -1104.8372471869
   10   -1104.8372564824      6.53E-09 Convergence criterion met
 Total energy in the final basis set = -1104.8372564824
   10   -1104.8372594687      2.86E-09 Convergence criterion met
 Total energy in the final basis set = -1104.8372594687
    9   -1104.8372605535      4.43E-09 Convergence criterion met
 Total energy in the final basis set = -1104.8372605535

             Standard Nuclear Orientation (Angstroms)
    I     Atom           X                Y                Z
 ----------------------------------------------------------------
    1      S       1.6462105196    -0.3845014637     1.1316412242
    2      C       3.1785616734    -0.0188731271     0.3379329799
    3      C       2.9692332876     0.3561379839    -0.9784544965
    4      C       1.6128573048     0.3884945417    -1.3653471885
    5      C       0.7087996907    -0.0344865871    -0.3651146079
    6      H       1.2676477599     0.7394167214    -2.3325402336
    7      C      -0.7087996907     0.0344865871    -0.3651146079
    8      S      -1.6462105196     0.3845014637     1.1316412242
    9      C      -1.6128573048    -0.3884945417    -1.3653471885
   10      C      -3.1785616734     0.0188731271     0.3379329799
   11      C      -2.9692332876    -0.3561379839    -0.9784544965
   12      H      -3.7817408501    -0.6465945103    -1.6405498355
   13      H       4.1026351090    -0.0362413469     0.8990510176
   14      H       3.7817408501     0.6465945103    -1.6405498355
   15      H      -4.1026351090     0.0362413469     0.8990510176
   16      H      -1.2676477599    -0.7394167214    -2.3325402336
 ----------------------------------------------------------------

    8   -1104.8372611597      7.00E-09 Convergence criterion met
 Total energy in the final basis set = -1104.8372611597
 Final energy is   -1104.83726115973
 **  OPTIMIZATION CONVERGED  **

             Orbital Energies (a.u.) and Symmetries
 --------------------------------------------------------------

 Alpha MOs, Unrestricted
 -- Occupied --
-88.749 -88.749 -10.064 -10.064 -10.056 -10.056 -10.048 -10.048
  1 B     1 A     2 A     2 B     3 B     3 A     4 B     4 A
-10.034 -10.034  -7.808  -7.808  -5.773  -5.773  -5.769  -5.769
  5 B     5 A     6 B     6 A     7 B     7 A     8 B     8 A
 -5.766  -5.766  -0.722  -0.701  -0.604  -0.580  -0.571  -0.536
  9 A     9 B    10 A    10 B    11 A    12 A    11 B    12 B
 -0.446  -0.412  -0.396  -0.369  -0.362  -0.315  -0.261  -0.252
 13 A    14 A    13 B    14 B    15 A    15 B    16 A    17 A
 -0.248  -0.239  -0.237  -0.209  -0.208  -0.194  -0.178  -0.118
 16 B    17 B    18 A    18 B    19 A    20 A    19 B    20 B
 -0.106  -0.104  -0.055   0.052
 21 B    21 A    22 A    22 B

 Beta MOs, Unrestricted
 -- Occupied --
-88.749 -88.749 -10.063 -10.062 -10.053 -10.053 -10.049 -10.049
  1 B     1 A     2 A     2 B     3 B     3 A     4 B     4 A
-10.033 -10.033  -7.808  -7.808  -5.772  -5.772  -5.769  -5.769
  5 B     5 A     6 B     6 A     7 B     7 A     8 B     8 A
 -5.764  -5.764  -0.719  -0.698  -0.599  -0.576  -0.568  -0.531
  9 A     9 B    10 A    10 B    11 A    12 A    11 B    12 B
 -0.439  -0.409  -0.392  -0.366  -0.360  -0.313  -0.259  -0.251
 13 A    14 A    13 B    14 B    15 A    15 B    16 A    17 A
 -0.246  -0.234  -0.230  -0.206  -0.199  -0.191  -0.175  -0.102
 16 B    18 A    17 B    18 B    19 A    20 A    19 B    20 B
 -0.097  -0.096  -0.037
 21 B    21 A    22 A

          Ground-State Mulliken Net Atomic Charges

     Atom                 Charge (a.u.)    Spin (a.u.)
  --------------------------------------------------------
      1 S                    -0.238735       0.119639
      2 C                    -0.185252       0.239487
      3 C                    -0.332029      -0.068774
      4 C                    -0.069359       0.194661
      5 C                     0.014456       0.028876
      6 H                     0.097606      -0.005147
      7 C                     0.014456       0.028876
      8 S                    -0.238735       0.119639
      9 C                    -0.069359       0.194661
     10 C                    -0.185252       0.239487
     11 C                    -0.332029      -0.068774
     12 H                     0.070582       0.003270
     13 H                     0.142731      -0.012011
     14 H                     0.070582       0.003270
     15 H                     0.142731      -0.012011
     16 H                     0.097606      -0.005147
  --------------------------------------------------------
  Sum of atomic charges =    -1.000000

                    Cartesian Multipole Moments
 -----------------------------------------------------------------
    Charge (ESU x 10^10)
                -4.8032
    Dipole Moment (Debye)
         X      -0.0000      Y       0.0000      Z      -0.4162
       Tot       0.4162
    Quadrupole Moments (Debye-Ang)
        XX     -99.8890     XY       1.8939     YY     -86.6253
        XZ      -0.0000     YZ       0.0000     ZZ     -83.7931

 Total job time:  169.75s(wall), 187.49s(cpu)
        *  Thank you very much for using Q-Chem.  Have a nice day.  *
