 Q-Chem 4.4, Q-Chem, Inc., Pleasanton, CA (2016)
 Q-Chem 4.4.1 for Intel X86 EM64T Linux

User input:
--------------------------------------------------------------
$comment
<SCF Fix Strategy>{
    "current_method_id": 1,
    "methods": [
        "increase_iter",
        "rca_diis",
        "gwh",
        "gdm",
        "rca",
        "core+rca",
        "fon"
    ],
    "version": 2.0
}</SCF Fix Strategy>
$end

$molecule
 -1  2
 S           1.83794975       -1.27576249       -0.14871336
 C           3.23937819       -0.19806434       -0.14823333
 C           2.83626844        1.12431397       -0.14890172
 C           1.43724334        1.31134696       -0.14931220
 C           0.69606563        0.10654716       -0.14908151
 H           0.95807640        2.28459073       -0.14860036
 C          -0.69610330       -0.10652413       -0.14907621
 S          -1.48873538       -1.00613096        1.18401094
 C          -1.68206945        0.28805612       -1.08345526
 C          -3.08369115       -0.81937489        0.44463727
 C          -2.99107385       -0.11308127       -0.74016386
 H          -3.85996489        0.11242130       -1.35411858
 H           4.24016475       -0.60708034       -0.14954918
 H           3.54430111        1.94981573       -0.14910914
 H          -3.95856890       -1.23301230        0.92667730
 H          -1.43752470        0.84776895       -1.97996198
$end

$rem
         jobtype = opt
        exchange = b3lyp
           basis = 6-31++g**
  max_scf_cycles = 200
      mem_static = 100
       mem_total = 1500
   scf_algorithm = rca_diis
       scf_guess = sad
$end

$opt
CONSTRAINT
tors 4 5 7 9 60.0
ENDCONSTRAINT
$end

--------------------------------------------------------------

  115   -1104.8285383435      7.46E-09 Convergence criterion met
 Total energy in the final basis set = -1104.8285383435
   22   -1104.8316584534      9.07E-09 Convergence criterion met
 Total energy in the final basis set = -1104.8316584534
   14   -1104.8332304840      5.83E-09 Convergence criterion met
 Total energy in the final basis set = -1104.8332304840
   14   -1104.8337817935      4.27E-09 Convergence criterion met
 Total energy in the final basis set = -1104.8337817935
   13   -1104.8339992292      7.05E-09 Convergence criterion met
 Total energy in the final basis set = -1104.8339992292
   12   -1104.8340566222      7.74E-09 Convergence criterion met
 Total energy in the final basis set = -1104.8340566222
   11   -1104.8340718212      3.72E-09 Convergence criterion met
 Total energy in the final basis set = -1104.8340718212
   10   -1104.8340762967      4.24E-09 Convergence criterion met
 Total energy in the final basis set = -1104.8340762967
    9   -1104.8340777137      5.85E-09 Convergence criterion met
 Total energy in the final basis set = -1104.8340777137

             Standard Nuclear Orientation (Angstroms)
    I     Atom           X                Y                Z
 ----------------------------------------------------------------
    1      S       1.6426005796    -0.4607311089     1.1050706067
    2      C       3.1747281401    -0.0213694869     0.3530789438
    3      C       2.9729753929     0.4344029992    -0.9390464191
    4      C       1.6191903474     0.4723937434    -1.3355687455
    5      C       0.7108240246    -0.0346881345    -0.3816338855
    6      H       1.2772956546     0.8841429192    -2.2798952094
    7      C      -0.7108240246     0.0346881345    -0.3816338855
    8      S      -1.6426005796     0.4607311089     1.1050706067
    9      C      -1.6191903474    -0.4723937434    -1.3355687455
   10      C      -3.1747281401     0.0213694869     0.3530789438
   11      C      -2.9729753929    -0.4344029992    -0.9390464191
   12      H      -3.7861060237    -0.7847992516    -1.5705617230
   13      H       4.0911775316    -0.0389527741     0.9269084047
   14      H       3.7861060237     0.7847992516    -1.5705617230
   15      H      -4.0911775316     0.0389527741     0.9269084047
   16      H      -1.2772956546    -0.8841429192    -2.2798952094
 ----------------------------------------------------------------

    9   -1104.8340783646      5.13E-09 Convergence criterion met
 Total energy in the final basis set = -1104.8340783646
 Final energy is   -1104.83407836462
 **  OPTIMIZATION CONVERGED  **

             Orbital Energies (a.u.) and Symmetries
 --------------------------------------------------------------

 Alpha MOs, Unrestricted
 -- Occupied --
-88.749 -88.749 -10.064 -10.064 -10.056 -10.056 -10.048 -10.048
  1 B     1 A     2 A     2 B     3 B     3 A     4 B     4 A
-10.035 -10.035  -7.808  -7.808  -5.772  -5.772  -5.769  -5.769
  5 B     5 A     6 B     6 A     7 B     7 A     8 B     8 A
 -5.765  -5.765  -0.722  -0.701  -0.604  -0.579  -0.571  -0.536
  9 A     9 B    10 A    10 B    11 A    12 A    11 B    12 B
 -0.445  -0.410  -0.397  -0.370  -0.361  -0.315  -0.260  -0.252
 13 A    14 A    13 B    14 B    15 A    15 B    16 A    17 A
 -0.249  -0.239  -0.236  -0.210  -0.208  -0.192  -0.179  -0.114
 16 B    17 B    18 A    18 B    19 A    20 A    19 B    20 B
 -0.105  -0.104  -0.058   0.053
 21 A    21 B    22 A    22 B

 Beta MOs, Unrestricted
 -- Occupied --
-88.748 -88.748 -10.062 -10.062 -10.053 -10.053 -10.049 -10.049
  1 B     1 A     2 A     2 B     3 B     3 A     4 B     4 A
-10.034 -10.034  -7.807  -7.807  -5.772  -5.772  -5.768  -5.768
  5 B     5 A     6 B     6 A     7 B     7 A     8 B     8 A
 -5.763  -5.763  -0.718  -0.698  -0.598  -0.576  -0.568  -0.532
  9 A     9 B    10 A    10 B    11 A    12 A    11 B    12 B
 -0.438  -0.408  -0.393  -0.367  -0.360  -0.314  -0.258  -0.251
 13 A    14 A    13 B    14 B    15 A    15 B    16 A    17 A
 -0.247  -0.233  -0.230  -0.206  -0.199  -0.189  -0.176  -0.098
 16 B    18 A    17 B    18 B    19 A    20 A    19 B    20 B
 -0.097  -0.095  -0.041
 21 A    21 B    22 A

          Ground-State Mulliken Net Atomic Charges

     Atom                 Charge (a.u.)    Spin (a.u.)
  --------------------------------------------------------
      1 S                    -0.224464       0.123058
      2 C                    -0.194454       0.239128
      3 C                    -0.325119      -0.068834
      4 C                    -0.098207       0.186712
      5 C                     0.027012       0.031990
      6 H                     0.102096      -0.004604
      7 C                     0.027012       0.031990
      8 S                    -0.224464       0.123058
      9 C                    -0.098207       0.186712
     10 C                    -0.194454       0.239128
     11 C                    -0.325119      -0.068834
     12 H                     0.070953       0.002904
     13 H                     0.142183      -0.010353
     14 H                     0.070953       0.002904
     15 H                     0.142183      -0.010353
     16 H                     0.102096      -0.004604
  --------------------------------------------------------
  Sum of atomic charges =    -1.000000

                    Cartesian Multipole Moments
 -----------------------------------------------------------------
    Charge (ESU x 10^10)
                -4.8032
    Dipole Moment (Debye)
         X       0.0000      Y      -0.0000      Z      -0.4140
       Tot       0.4140
    Quadrupole Moments (Debye-Ang)
        XX    -100.1616     XY       2.2870     YY     -86.3974
        XZ       0.0000     YZ      -0.0000     ZZ     -83.8908

 Total job time:  176.95s(wall), 195.66s(cpu)
        *  Thank you very much for using Q-Chem.  Have a nice day.  *
