 Q-Chem 4.4, Q-Chem, Inc., Pleasanton, CA (2016)
 Q-Chem 4.4.1 for Intel X86 EM64T Linux

User input:
--------------------------------------------------------------
$comment
<SCF Fix Strategy>{
    "current_method_id": 2,
    "methods": [
        "increase_iter",
        "rca_diis",
        "gwh",
        "gdm",
        "rca",
        "core+rca",
        "fon"
    ],
    "version": 2.0
}</SCF Fix Strategy>
$end

$molecule
 -1  2
 S           1.83794975       -1.27576249       -0.14871336
 C           3.23937819       -0.19806434       -0.14823333
 C           2.83626844        1.12431397       -0.14890172
 C           1.43724334        1.31134696       -0.14931220
 C           0.69606563        0.10654716       -0.14908151
 H           0.95807640        2.28459073       -0.14860036
 C          -0.69610330       -0.10652413       -0.14907621
 S          -1.42673079       -1.41131535       -1.13820854
 C          -1.72553634        0.57210135        0.54419290
 C          -3.05621855       -0.99890153       -0.59037678
 C          -3.01863932        0.06705206        0.28911915
 H          -3.91607999        0.47911933        0.74471133
 H           4.24016475       -0.60708034       -0.14954918
 H           3.54430111        1.94981573       -0.14910914
 H          -3.90837912       -1.56098975       -0.94639475
 H          -1.52288688        1.40558912        1.20829850
$end

$rem
         jobtype = opt
        exchange = b3lyp
           basis = 6-31++g**
  max_scf_cycles = 200
      mem_static = 100
       mem_total = 1500
   scf_algorithm = diis
       scf_guess = gwh
$end

$opt
CONSTRAINT
tors 4 5 7 9 -40.0
ENDCONSTRAINT
$end

--------------------------------------------------------------

   59   -1104.8369699062      8.37E-09 Convergence criterion met
 Total energy in the final basis set = -1104.8369699062
   23   -1104.8388351727      5.22E-09 Convergence criterion met
 Total energy in the final basis set = -1104.8388351727
   13   -1104.8396755745      8.31E-09 Convergence criterion met
 Total energy in the final basis set = -1104.8396755745
   13   -1104.8398716605      4.12E-09 Convergence criterion met
 Total energy in the final basis set = -1104.8398716605
   13   -1104.8399504120      3.04E-09 Convergence criterion met
 Total energy in the final basis set = -1104.8399504120
   11   -1104.8399665392      6.51E-09 Convergence criterion met
 Total energy in the final basis set = -1104.8399665392
   10   -1104.8399732171      6.36E-09 Convergence criterion met
 Total energy in the final basis set = -1104.8399732171
    9   -1104.8399753176      7.57E-09 Convergence criterion met
 Total energy in the final basis set = -1104.8399753176
    9   -1104.8399763209      4.78E-09 Convergence criterion met
 Total energy in the final basis set = -1104.8399763209

             Standard Nuclear Orientation (Angstroms)
    I     Atom           X                Y                Z
 ----------------------------------------------------------------
    1      S       1.6521060011     0.3105053323     1.1522102835
    2      C       3.1826885354     0.0167956329     0.3231856328
    3      C       2.9644347786    -0.2817019902    -1.0109504174
    4      C       1.6054403062    -0.3082173977    -1.3881280142
    5      C       0.7072617951     0.0308980795    -0.3495987479
    6      H       1.2562553345    -0.5964829411    -2.3742179081
    7      C      -0.7072617951    -0.0308980795    -0.3495987479
    8      S      -1.6521060011    -0.3105053323     1.1522102835
    9      C      -1.6054403062     0.3082173977    -1.3881280142
   10      C      -3.1826885354    -0.0167956329     0.3231856328
   11      C      -2.9644347786     0.2817019902    -1.0109504174
   12      H      -3.7749411180     0.5141554684    -1.6979700691
   13      H       4.1133545439     0.0334581114     0.8730573690
   14      H       3.7749411180    -0.5141554684    -1.6979700691
   15      H      -4.1133545439    -0.0334581114     0.8730573690
   16      H      -1.2562553345     0.5964829411    -2.3742179081
 ----------------------------------------------------------------

    9   -1104.8399768612      2.85E-09 Convergence criterion met
 Total energy in the final basis set = -1104.8399768612
 Final energy is   -1104.83997686122
 **  OPTIMIZATION CONVERGED  **

             Orbital Energies (a.u.) and Symmetries
 --------------------------------------------------------------

 Alpha MOs, Unrestricted
 -- Occupied --
-88.750 -88.750 -10.065 -10.064 -10.056 -10.056 -10.048 -10.048
  1 B     1 A     2 A     2 B     3 B     3 A     4 B     4 A
-10.034 -10.034  -7.809  -7.809  -5.773  -5.773  -5.770  -5.770
  5 B     5 A     6 B     6 A     7 B     7 A     8 B     8 A
 -5.766  -5.766  -0.723  -0.702  -0.605  -0.581  -0.571  -0.536
  9 A     9 B    10 A    10 B    11 A    12 A    11 B    12 B
 -0.446  -0.413  -0.395  -0.369  -0.362  -0.315  -0.261  -0.253
 13 A    14 A    13 B    14 B    15 A    15 B    16 A    17 A
 -0.247  -0.239  -0.238  -0.209  -0.208  -0.195  -0.178  -0.121
 16 B    17 B    18 A    18 B    19 A    20 A    19 B    20 B
 -0.107  -0.103  -0.053   0.050
 21 B    21 A    22 A    22 B

 Beta MOs, Unrestricted
 -- Occupied --
-88.749 -88.749 -10.063 -10.062 -10.053 -10.053 -10.049 -10.049
  1 B     1 A     2 A     2 B     3 B     3 A     4 B     4 A
-10.032 -10.032  -7.809  -7.809  -5.773  -5.773  -5.770  -5.770
  5 B     5 A     6 B     6 A     7 B     7 A     8 B     8 A
 -5.765  -5.765  -0.719  -0.699  -0.600  -0.577  -0.568  -0.531
  9 A     9 B    10 A    10 B    11 A    12 A    11 B    12 B
 -0.439  -0.411  -0.391  -0.366  -0.361  -0.313  -0.259  -0.251
 13 A    14 A    13 B    14 B    15 A    15 B    16 A    17 A
 -0.245  -0.235  -0.230  -0.206  -0.199  -0.192  -0.175  -0.106
 16 B    18 A    17 B    18 B    19 A    20 A    19 B    20 B
 -0.098  -0.095  -0.035
 21 B    21 A    22 A

          Ground-State Mulliken Net Atomic Charges

     Atom                 Charge (a.u.)    Spin (a.u.)
  --------------------------------------------------------
      1 S                    -0.258023       0.115574
      2 C                    -0.168498       0.239386
      3 C                    -0.346358      -0.068007
      4 C                     0.003668       0.205412
      5 C                    -0.036002       0.023668
      6 H                     0.091823      -0.006220
      7 C                    -0.036002       0.023668
      8 S                    -0.258023       0.115574
      9 C                     0.003668       0.205412
     10 C                    -0.168498       0.239386
     11 C                    -0.346358      -0.068007
     12 H                     0.070003       0.003634
     13 H                     0.143388      -0.013446
     14 H                     0.070003       0.003634
     15 H                     0.143388      -0.013446
     16 H                     0.091823      -0.006220
  --------------------------------------------------------
  Sum of atomic charges =    -1.000000

                    Cartesian Multipole Moments
 -----------------------------------------------------------------
    Charge (ESU x 10^10)
                -4.8032
    Dipole Moment (Debye)
         X      -0.0000      Y      -0.0000      Z      -0.4162
       Tot       0.4162
    Quadrupole Moments (Debye-Ang)
        XX     -99.6457     XY      -1.5126     YY     -86.8361
        XZ       0.0000     YZ       0.0000     ZZ     -83.6986

 Total job time:  109.51s(wall), 121.56s(cpu)
        *  Thank you very much for using Q-Chem.  Have a nice day.  *
