 Q-Chem 4.4, Q-Chem, Inc., Pleasanton, CA (2016)
 Q-Chem 4.4.1 for Intel X86 EM64T Linux

User input:
--------------------------------------------------------------
$molecule
 -1  2
 S           1.83794975       -1.27576249       -0.14871336
 C           3.23937819       -0.19806434       -0.14823333
 C           2.83626844        1.12431397       -0.14890172
 C           1.43724334        1.31134696       -0.14931220
 C           0.69606563        0.10654716       -0.14908151
 H           0.95807640        2.28459073       -0.14860036
 C          -0.69610330       -0.10652413       -0.14907621
 S          -1.38633149       -1.67523931        0.37760884
 C          -1.75384753        0.75705507       -0.51825790
 C          -3.03811268       -1.11718524        0.08498323
 C          -3.03649468        0.18369901       -0.38286279
 H          -3.95254693        0.71735356       -0.62540048
 H           4.24016475       -0.60708034       -0.14954918
 H           3.54430111        1.94981573       -0.14910914
 H          -3.87590255       -1.77315531        0.27650604
 H          -1.57820916        1.76700307       -0.87316790
$end

$rem
         jobtype = opt
        exchange = b3lyp
           basis = 6-31++g**
  max_scf_cycles = 100
      mem_static = 100
       mem_total = 1500
$end

$opt
CONSTRAINT
tors 4 5 7 9 20.0
ENDCONSTRAINT
$end

--------------------------------------------------------------

   58   -1104.8426580868      8.66E-09 Convergence criterion met
 Total energy in the final basis set = -1104.8426580868
   12   -1104.8433139017      6.69E-09 Convergence criterion met
 Total energy in the final basis set = -1104.8433139017
   18   -1104.8435680475      3.57E-09 Convergence criterion met
 Total energy in the final basis set = -1104.8435680475
   11   -1104.8436190363      6.64E-09 Convergence criterion met
 Total energy in the final basis set = -1104.8436190363
   11   -1104.8436384545      8.61E-09 Convergence criterion met
 Total energy in the final basis set = -1104.8436384545
   10   -1104.8436426338      6.13E-09 Convergence criterion met
 Total energy in the final basis set = -1104.8436426338
   10   -1104.8436444857      3.40E-09 Convergence criterion met
 Total energy in the final basis set = -1104.8436444857

             Standard Nuclear Orientation (Angstroms)
    I     Atom           X                Y                Z
 ----------------------------------------------------------------
    1      S       1.6621591109    -0.1646161391     1.1777716710
    2      C       3.1888913049    -0.0151261061     0.3018967741
    3      C       2.9573170711     0.1398666936    -1.0536589147
    4      C       1.5948016838     0.1554726989    -1.4174100584
    5      C       0.7056729765    -0.0161568842    -0.3288847502
    6      H       1.2419716942     0.3135440960    -2.4308609954
    7      C      -0.7056729765     0.0161568842    -0.3288847502
    8      S      -1.6621591109     0.1646161391     1.1777716710
    9      C      -1.5948016838    -0.1554726989    -1.4174100584
   10      C      -3.1888913049     0.0151261061     0.3018967741
   11      C      -2.9573170711    -0.1398666936    -1.0536589147
   12      H      -3.7640615725    -0.2587114299    -1.7734039235
   13      H       4.1277459328    -0.0246366225     0.8375127659
   14      H       3.7640615725     0.2587114299    -1.7734039235
   15      H      -4.1277459328     0.0246366225     0.8375127659
   16      H      -1.2419716942    -0.3135440960    -2.4308609954
 ----------------------------------------------------------------

    9   -1104.8436451029      3.56E-09 Convergence criterion met
 Total energy in the final basis set = -1104.8436451029
 Final energy is   -1104.84364510293
 **  OPTIMIZATION CONVERGED  **

             Orbital Energies (a.u.) and Symmetries
 --------------------------------------------------------------

 Alpha MOs, Unrestricted
 -- Occupied --
-88.751 -88.751 -10.065 -10.064 -10.056 -10.056 -10.049 -10.049
  1 B     1 A     2 A     2 B     3 B     3 A     4 B     4 A
-10.033 -10.033  -7.810  -7.810  -5.774  -5.774  -5.771  -5.771
  5 B     5 A     6 B     6 A     7 B     7 A     8 B     8 A
 -5.767  -5.767  -0.724  -0.702  -0.605  -0.582  -0.571  -0.535
  9 A     9 B    10 A    10 B    11 A    12 A    11 B    12 B
 -0.447  -0.415  -0.393  -0.368  -0.364  -0.315  -0.262  -0.254
 13 A    14 A    13 B    14 B    15 A    15 B    16 A    17 A
 -0.245  -0.240  -0.239  -0.209  -0.208  -0.197  -0.176  -0.126
 16 B    17 B    18 A    19 A    18 B    20 A    19 B    20 B
 -0.110  -0.101  -0.051   0.048
 21 B    21 A    22 A    22 B

 Beta MOs, Unrestricted
 -- Occupied --
-88.750 -88.750 -10.063 -10.063 -10.053 -10.053 -10.049 -10.049
  1 B     1 A     2 A     2 B     3 B     3 A     4 B     4 A
-10.031 -10.031  -7.809  -7.809  -5.774  -5.774  -5.770  -5.770
  5 B     5 A     6 B     6 A     7 B     7 A     8 B     8 A
 -5.765  -5.765  -0.720  -0.699  -0.600  -0.578  -0.568  -0.531
  9 A     9 B    10 A    10 B    11 A    12 A    11 B    12 B
 -0.440  -0.413  -0.390  -0.366  -0.362  -0.313  -0.260  -0.252
 13 A    14 A    13 B    14 B    15 A    15 B    16 A    17 A
 -0.243  -0.237  -0.230  -0.206  -0.200  -0.194  -0.174  -0.111
 16 B    18 A    17 B    18 B    19 A    20 A    19 B    20 B
 -0.100  -0.093  -0.032
 21 B    21 A    22 A

          Ground-State Mulliken Net Atomic Charges

     Atom                 Charge (a.u.)    Spin (a.u.)
  --------------------------------------------------------
      1 S                    -0.299721       0.107831
      2 C                    -0.132639       0.240717
      3 C                    -0.371867      -0.069018
      4 C                     0.131951       0.229231
      5 C                    -0.120477       0.011244
      6 H                     0.079710      -0.009029
      7 C                    -0.120477       0.011244
      8 S                    -0.299721       0.107831
      9 C                     0.131951       0.229231
     10 C                    -0.132639       0.240717
     11 C                    -0.371867      -0.069018
     12 H                     0.068426       0.004084
     13 H                     0.144617      -0.015060
     14 H                     0.068426       0.004084
     15 H                     0.144617      -0.015060
     16 H                     0.079710      -0.009029
  --------------------------------------------------------
  Sum of atomic charges =    -1.000000

                    Cartesian Multipole Moments
 -----------------------------------------------------------------
    Charge (ESU x 10^10)
                -4.8032
    Dipole Moment (Debye)
         X       0.0000      Y       0.0000      Z      -0.4229
       Tot       0.4229
    Quadrupole Moments (Debye-Ang)
        XX     -99.3040     XY       0.8262     YY     -87.1493
        XZ      -0.0000     YZ      -0.0000     ZZ     -83.4970

 Total job time:  88.37s(wall), 98.00s(cpu)
        *  Thank you very much for using Q-Chem.  Have a nice day.  *
