 Q-Chem 4.4, Q-Chem, Inc., Pleasanton, CA (2016)
 Q-Chem 4.4.1 for Intel X86 EM64T Linux

User input:
--------------------------------------------------------------
$comment
<SCF Fix Strategy>{
    "current_method_id": 2,
    "methods": [
        "increase_iter",
        "diis_gdm",
        "gwh",
        "rca",
        "gdm",
        "core+gdm",
        "fon"
    ],
    "version": 2.0
}</SCF Fix Strategy>
$end

$molecule
 -1  2
 S           1.83794975       -1.27576249       -0.14871336
 C           3.23937819       -0.19806434       -0.14823333
 C           2.83626844        1.12431397       -0.14890172
 C           1.43724334        1.31134696       -0.14931220
 C           0.69606563        0.10654716       -0.14908151
 H           0.95807640        2.28459073       -0.14860036
 C          -0.69610330       -0.10652413       -0.14907621
 S          -1.83445618        1.25271917        0.11792530
 C          -1.43975521       -1.29516231       -0.33618076
 C          -3.23782410        0.18768994       -0.02940550
 C          -2.83786216       -1.11412679       -0.26707329
 H          -3.54752205       -1.92899929       -0.39007367
 H           4.24016475       -0.60708034       -0.14954918
 H           3.54430111        1.94981573       -0.14910914
 H          -4.23737363        0.58862554        0.06557334
 H          -0.96293662       -2.25306662       -0.51469757
$end

$rem
         jobtype = opt
        exchange = b3lyp
           basis = 6-31++g**
  max_scf_cycles = 200
      mem_static = 100
       mem_total = 1500
   scf_algorithm = diis
       scf_guess = gwh
$end

$opt
CONSTRAINT
tors 4 5 7 9 170.0
ENDCONSTRAINT
$end

--------------------------------------------------------------

   48   -1104.8459678603      9.71E-09 Convergence criterion met
 Total energy in the final basis set = -1104.8459678603
   11   -1104.8460796663      5.15E-09 Convergence criterion met
 Total energy in the final basis set = -1104.8460796663
   11   -1104.8461290027      6.53E-09 Convergence criterion met
 Total energy in the final basis set = -1104.8461290027
   10   -1104.8461359927      5.52E-09 Convergence criterion met
 Total energy in the final basis set = -1104.8461359927
   10   -1104.8461378810      2.75E-09 Convergence criterion met
 Total energy in the final basis set = -1104.8461378810

             Standard Nuclear Orientation (Angstroms)
    I     Atom           X                Y                Z
 ----------------------------------------------------------------
    1      S       1.8689300468    -1.2285009546     0.0829985770
    2      C       3.2433401660    -0.1202410766    -0.0089777784
    3      C       2.8077151848     1.1895700298    -0.0875212449
    4      C       1.4046251436     1.3428135481    -0.0810520253
    5      C       0.6933037580     0.1241480430     0.0129286791
    6      H       0.9009619030     2.3004194234    -0.1594059378
    7      C      -0.6933037580    -0.1241480430     0.0129286791
    8      S      -1.8689300468     1.2285009546     0.0829985770
    9      C      -1.4046251436    -1.3428135481    -0.0810520253
   10      C      -3.2433401660     0.1202410766    -0.0089777784
   11      C      -2.8077151848    -1.1895700298    -0.0875212449
   12      H      -3.4949048714    -2.0294066223    -0.1592394162
   13      H       4.2534605385    -0.5056357229    -0.0143554659
   14      H       3.4949048714     2.0294066223    -0.1592394162
   15      H      -4.2534605385     0.5056357229    -0.0143554659
   16      H      -0.9009619030    -2.3004194234    -0.1594059378
 ----------------------------------------------------------------

    8   -1104.8461381760      5.64E-09 Convergence criterion met
 Total energy in the final basis set = -1104.8461381760
 Final energy is   -1104.84613817599
 **  OPTIMIZATION CONVERGED  **

             Orbital Energies (a.u.) and Symmetries
 --------------------------------------------------------------

 Alpha MOs, Unrestricted
 -- Occupied --
-88.751 -88.751 -10.065 -10.064 -10.057 -10.057 -10.049 -10.049
  1 A     1 B     2 A     2 B     3 B     3 A     4 B     4 A
-10.033 -10.033  -7.810  -7.810  -5.774  -5.774  -5.771  -5.771
  5 B     5 A     6 A     6 B     7 A     7 B     8 B     8 A
 -5.767  -5.767  -0.724  -0.702  -0.606  -0.582  -0.570  -0.536
  9 B     9 A    10 A    10 B    11 A    11 B    12 A    12 B
 -0.448  -0.418  -0.389  -0.369  -0.364  -0.316  -0.261  -0.256
 13 A    13 B    14 A    14 B    15 A    15 B    16 B    16 A
 -0.242  -0.241  -0.241  -0.212  -0.209  -0.195  -0.176  -0.128
 17 A    17 B    18 A    19 A    18 B    19 B    20 A    21 A
 -0.110  -0.102  -0.051   0.047
 20 B    22 A    21 B    23 A

 Beta MOs, Unrestricted
 -- Occupied --
-88.750 -88.750 -10.063 -10.063 -10.053 -10.053 -10.050 -10.050
  1 A     1 B     2 A     2 B     3 B     3 A     4 B     4 A
-10.031 -10.031  -7.809  -7.809  -5.774  -5.774  -5.771  -5.771
  5 B     5 A     6 A     6 B     7 A     7 B     8 B     8 A
 -5.765  -5.765  -0.720  -0.699  -0.601  -0.579  -0.566  -0.532
  9 B     9 A    10 A    10 B    11 A    11 B    12 A    12 B
 -0.441  -0.415  -0.387  -0.367  -0.362  -0.314  -0.259  -0.254
 13 A    13 B    14 A    14 B    15 A    15 B    16 B    16 A
 -0.239  -0.239  -0.231  -0.211  -0.200  -0.192  -0.174  -0.113
 17 B    17 A    18 A    19 A    18 B    19 B    20 A    21 A
 -0.100  -0.092  -0.032
 20 B    22 A    21 B

          Ground-State Mulliken Net Atomic Charges

     Atom                 Charge (a.u.)    Spin (a.u.)
  --------------------------------------------------------
      1 S                    -0.319684       0.097288
      2 C                    -0.093910       0.243998
      3 C                    -0.349099      -0.073052
      4 C                     0.240377       0.271523
      5 C                    -0.292080      -0.021421
      6 H                     0.087719      -0.007779
      7 C                    -0.292080      -0.021421
      8 S                    -0.319684       0.097288
      9 C                     0.240377       0.271523
     10 C                    -0.093910       0.243998
     11 C                    -0.349099      -0.073052
     12 H                     0.074842       0.004184
     13 H                     0.151833      -0.014741
     14 H                     0.074842       0.004184
     15 H                     0.151833      -0.014741
     16 H                     0.087719      -0.007779
  --------------------------------------------------------
  Sum of atomic charges =    -1.000000

                    Cartesian Multipole Moments
 -----------------------------------------------------------------
    Charge (ESU x 10^10)
                -4.8032
    Dipole Moment (Debye)
         X      -0.0000      Y      -0.0000      Z      -0.1322
       Tot       0.1322
    Quadrupole Moments (Debye-Ang)
        XX     -99.5263     XY       0.8121     YY     -83.7535
        XZ       0.0000     YZ       0.0000     ZZ     -87.3017

 Total job time:  60.45s(wall), 66.42s(cpu)
        *  Thank you very much for using Q-Chem.  Have a nice day.  *
