 Q-Chem 4.4, Q-Chem, Inc., Pleasanton, CA (2016)
 Q-Chem 4.4.1 for Intel X86 EM64T Linux

User input:
--------------------------------------------------------------
$comment
<SCF Fix Strategy>{
    "current_method_id": 1,
    "methods": [
        "increase_iter",
        "rca_diis",
        "gwh",
        "gdm",
        "rca",
        "core+rca",
        "fon"
    ],
    "version": 2.0
}</SCF Fix Strategy>
$end

$molecule
 -1  2
 S           1.83794975       -1.27576249       -0.14871336
 C           3.23937819       -0.19806434       -0.14823333
 C           2.83626844        1.12431397       -0.14890172
 C           1.43724334        1.31134696       -0.14931220
 C           0.69606563        0.10654716       -0.14908151
 H           0.95807640        2.28459073       -0.14860036
 C          -0.69610330       -0.10652413       -0.14907621
 S          -1.40349104       -1.56311591        0.62074350
 C          -1.74181952        0.67846199       -0.68866995
 C          -3.04574279       -1.06732875        0.19338014
 C          -3.02887989        0.13394266       -0.49061180
 H          -3.93702981        0.61596209       -0.84513180
 H           4.24016475       -0.60708034       -0.14954918
 H           3.54430111        1.94981573       -0.14910914
 H          -3.88976275       -1.68259044        0.47258072
 H          -1.55462450        1.61289685       -1.20693090
$end

$rem
         jobtype = opt
        exchange = b3lyp
           basis = 6-31++g**
  max_scf_cycles = 200
      mem_static = 100
       mem_total = 1500
   scf_algorithm = rca_diis
       scf_guess = sad
$end

$opt
CONSTRAINT
tors 4 5 7 9 30.0
ENDCONSTRAINT
$end

--------------------------------------------------------------

   94   -1104.8402770757      9.47E-09 Convergence criterion met
 Total energy in the final basis set = -1104.8402770757
   18   -1104.8414884336      4.79E-09 Convergence criterion met
 Total energy in the final basis set = -1104.8414884336
   13   -1104.8419594933      5.70E-09 Convergence criterion met
 Total energy in the final basis set = -1104.8419594933
   12   -1104.8420683855      8.52E-09 Convergence criterion met
 Total energy in the final basis set = -1104.8420683855
   12   -1104.8421104685      7.22E-09 Convergence criterion met
 Total energy in the final basis set = -1104.8421104685
   10   -1104.8421190129      9.36E-09 Convergence criterion met
 Total energy in the final basis set = -1104.8421190129
   10   -1104.8421228032      4.13E-09 Convergence criterion met
 Total energy in the final basis set = -1104.8421228032
    9   -1104.8421239312      5.03E-09 Convergence criterion met
 Total energy in the final basis set = -1104.8421239312

             Standard Nuclear Orientation (Angstroms)
    I     Atom           X                Y                Z
 ----------------------------------------------------------------
    1      S       1.6579307915    -0.2386557455     1.1671964345
    2      C       3.1863613958    -0.0171377246     0.3105323609
    3      C       2.9602301341     0.2098604301    -1.0360351861
    4      C       1.5990888010     0.2316033803    -1.4050993403
    5      C       0.7062462527    -0.0241595114    -0.3372175866
    6      H       1.2472998322     0.4576110660    -2.4061644355
    7      C      -0.7062462527     0.0241595114    -0.3372175866
    8      S      -1.6579307915     0.2386557455     1.1671964345
    9      C      -1.5990888010    -0.2316033803    -1.4050993403
   10      C      -3.1863613958     0.0171377246     0.3105323609
   11      C      -2.9602301341    -0.2098604301    -1.0360351861
   12      H      -3.7686000552    -0.3852662314    -1.7422476895
   13      H       4.1219482905    -0.0309284046     0.8518797467
   14      H       3.7686000552     0.3852662314    -1.7422476895
   15      H      -4.1219482905     0.0309284046     0.8518797467
   16      H      -1.2472998322    -0.4576110660    -2.4061644355
 ----------------------------------------------------------------

    9   -1104.8421245036      4.22E-09 Convergence criterion met
 Total energy in the final basis set = -1104.8421245036
 Final energy is   -1104.84212450360
 **  OPTIMIZATION CONVERGED  **

             Orbital Energies (a.u.) and Symmetries
 --------------------------------------------------------------

 Alpha MOs, Unrestricted
 -- Occupied --
-88.750 -88.750 -10.065 -10.064 -10.056 -10.056 -10.048 -10.048
  1 B     1 A     2 A     2 B     3 B     3 A     4 B     4 A
-10.033 -10.033  -7.809  -7.809  -5.774  -5.774  -5.770  -5.770
  5 B     5 A     6 B     6 A     7 B     7 A     8 B     8 A
 -5.767  -5.767  -0.724  -0.702  -0.605  -0.581  -0.571  -0.536
  9 A     9 B    10 A    10 B    11 A    12 A    11 B    12 B
 -0.447  -0.414  -0.394  -0.369  -0.363  -0.315  -0.262  -0.253
 13 A    14 A    13 B    14 B    15 A    15 B    16 A    17 A
 -0.246  -0.239  -0.239  -0.209  -0.208  -0.196  -0.177  -0.124
 16 B    17 B    18 A    19 A    18 B    20 A    19 B    20 B
 -0.109  -0.102  -0.052   0.049
 21 B    21 A    22 A    22 B

 Beta MOs, Unrestricted
 -- Occupied --
-88.750 -88.750 -10.063 -10.062 -10.053 -10.053 -10.049 -10.049
  1 B     1 A     2 A     2 B     3 B     3 A     4 B     4 A
-10.031 -10.031  -7.809  -7.809  -5.773  -5.773  -5.770  -5.770
  5 B     5 A     6 B     6 A     7 B     7 A     8 B     8 A
 -5.765  -5.765  -0.720  -0.699  -0.600  -0.578  -0.568  -0.531
  9 A     9 B    10 A    10 B    11 A    12 A    11 B    12 B
 -0.440  -0.412  -0.391  -0.366  -0.361  -0.313  -0.260  -0.252
 13 A    14 A    13 B    14 B    15 A    15 B    16 A    17 A
 -0.244  -0.236  -0.230  -0.206  -0.199  -0.194  -0.174  -0.109
 16 B    18 A    17 B    18 B    19 A    20 A    19 B    20 B
 -0.099  -0.094  -0.033
 21 B    21 A    22 A

          Ground-State Mulliken Net Atomic Charges

     Atom                 Charge (a.u.)    Spin (a.u.)
  --------------------------------------------------------
      1 S                    -0.279897       0.111564
      2 C                    -0.149779       0.239590
      3 C                    -0.361569      -0.068042
      4 C                     0.085350       0.217393
      5 C                    -0.093153       0.017547
      6 H                     0.085871      -0.007531
      7 C                    -0.093153       0.017547
      8 S                    -0.279897       0.111564
      9 C                     0.085350       0.217393
     10 C                    -0.149779       0.239590
     11 C                    -0.361569      -0.068042
     12 H                     0.069307       0.003900
     13 H                     0.143870      -0.014420
     14 H                     0.069307       0.003900
     15 H                     0.143870      -0.014420
     16 H                     0.085871      -0.007531
  --------------------------------------------------------
  Sum of atomic charges =    -1.000000

                    Cartesian Multipole Moments
 -----------------------------------------------------------------
    Charge (ESU x 10^10)
                -4.8032
    Dipole Moment (Debye)
         X       0.0000      Y      -0.0000      Z      -0.4164
       Tot       0.4164
    Quadrupole Moments (Debye-Ang)
        XX     -99.4497     XY       1.1727     YY     -87.0127
        XZ       0.0000     YZ       0.0000     ZZ     -83.6026

 Total job time:  147.98s(wall), 162.71s(cpu)
        *  Thank you very much for using Q-Chem.  Have a nice day.  *
