 Q-Chem 4.4, Q-Chem, Inc., Pleasanton, CA (2016)
 Q-Chem 4.4.1 for Intel X86 EM64T Linux

User input:
--------------------------------------------------------------
$comment
<SCF Fix Strategy>{
    "current_method_id": 1,
    "methods": [
        "increase_iter",
        "rca_diis",
        "gwh",
        "gdm",
        "rca",
        "core+rca",
        "fon"
    ],
    "version": 2.0
}</SCF Fix Strategy>
$end

$molecule
 -1  2
 S           1.83794975       -1.27576249       -0.14871336
 C           3.23937819       -0.19806434       -0.14823333
 C           2.83626844        1.12431397       -0.14890172
 C           1.43724334        1.31134696       -0.14931220
 C           0.69606563        0.10654716       -0.14908151
 H           0.95807640        2.28459073       -0.14860036
 C          -0.69610330       -0.10652413       -0.14907621
 S          -1.68473914        0.27445275       -1.59549774
 C          -1.54469830       -0.60945348        0.86474606
 C          -3.17122359       -0.24748464       -0.79338772
 C          -2.90428707       -0.68009965        0.49221389
 H          -3.68289607       -1.04445160        1.15838137
 H           4.24016475       -0.60708034       -0.14954918
 H           3.54430111        1.94981573       -0.14910914
 H          -4.11647370       -0.20134688       -1.31611434
 H          -1.16867300       -0.90876416        1.83728037
$end

$rem
         jobtype = opt
        exchange = b3lyp
           basis = 6-31++g**
  max_scf_cycles = 200
      mem_static = 100
       mem_total = 1500
   scf_algorithm = rca_diis
       scf_guess = sad
$end

$opt
CONSTRAINT
tors 4 5 7 9 -110.0
ENDCONSTRAINT
$end

--------------------------------------------------------------

  132   -1104.8246848386      4.61E-09 Convergence criterion met
 Total energy in the final basis set = -1104.8246848386
   25   -1104.8278949688      8.71E-09 Convergence criterion met
 Total energy in the final basis set = -1104.8278949688
   16   -1104.8296480147      2.89E-09 Convergence criterion met
 Total energy in the final basis set = -1104.8296480147
   15   -1104.8306178290      7.82E-09 Convergence criterion met
 Total energy in the final basis set = -1104.8306178290
   14   -1104.8309990765      5.82E-09 Convergence criterion met
 Total energy in the final basis set = -1104.8309990765
   13   -1104.8311352483      5.83E-09 Convergence criterion met
 Total energy in the final basis set = -1104.8311352483
   11   -1104.8311701107      8.33E-09 Convergence criterion met
 Total energy in the final basis set = -1104.8311701107
   10   -1104.8311796227      8.60E-09 Convergence criterion met
 Total energy in the final basis set = -1104.8311796227
   10   -1104.8311833384      3.19E-09 Convergence criterion met
 Total energy in the final basis set = -1104.8311833384
    9   -1104.8311848411      6.44E-09 Convergence criterion met
 Total energy in the final basis set = -1104.8311848411

             Standard Nuclear Orientation (Angstroms)
    I     Atom           X                Y                Z
 ----------------------------------------------------------------
    1      S       1.8646868873    -1.1642766896    -0.5197209464
    2      C       3.2392740634    -0.2346832189     0.0714692451
    3      C       2.8193883221     0.9786883728     0.5907166679
    4      C       1.4227036638     1.1781679867     0.5491809037
    5      C       0.6980428550     0.1389075035    -0.0654921089
    6      H       0.9207459180     2.0394575291     0.9788562531
    7      C      -0.6980428550    -0.1389075035    -0.0654921089
    8      S      -1.8646868873     1.1642766896    -0.5197209464
    9      C      -1.4227036638    -1.1781679867     0.5491809037
   10      C      -3.2392740634     0.2346832189     0.0714692451
   11      C      -2.8193883221    -0.9786883728     0.5907166679
   12      H      -3.5052606118    -1.6904107612     1.0443848315
   13      H       4.2315353409    -0.6644518700     0.0806201619
   14      H       3.5052606118     1.6904107612     1.0443848315
   15      H      -4.2315353409     0.6644518700     0.0806201619
   16      H      -0.9207459180    -2.0394575291     0.9788562531
 ----------------------------------------------------------------

    9   -1104.8311858342      8.23E-09 Convergence criterion met
 Total energy in the final basis set = -1104.8311858342
 Final energy is   -1104.83118583424
 **  OPTIMIZATION CONVERGED  **

             Orbital Energies (a.u.) and Symmetries
 --------------------------------------------------------------

 Alpha MOs, Unrestricted
 -- Occupied --
-88.750 -88.750 -10.066 -10.065 -10.058 -10.058 -10.049 -10.049
  1 B     1 A     2 A     2 B     3 B     3 A     4 A     4 B
-10.037 -10.037  -7.809  -7.809  -5.773  -5.773  -5.770  -5.770
  5 A     5 B     6 B     6 A     7 A     7 B     8 B     8 A
 -5.767  -5.767  -0.723  -0.703  -0.605  -0.580  -0.573  -0.538
  9 A     9 B    10 A    10 B    11 A    11 B    12 A    12 B
 -0.446  -0.414  -0.396  -0.371  -0.362  -0.317  -0.261  -0.257
 13 A    13 B    14 A    14 B    15 A    15 B    16 B    16 A
 -0.246  -0.242  -0.238  -0.213  -0.210  -0.192  -0.180  -0.112
 17 A    17 B    18 A    19 A    18 B    19 B    20 A    21 A
 -0.105  -0.105  -0.061   0.055
 20 B    22 A    21 B    23 A

 Beta MOs, Unrestricted
 -- Occupied --
-88.750 -88.750 -10.064 -10.064 -10.055 -10.055 -10.050 -10.050
  1 B     1 A     2 A     2 B     3 B     3 A     4 A     4 B
-10.035 -10.035  -7.809  -7.809  -5.773  -5.773  -5.770  -5.770
  5 A     5 B     6 B     6 A     7 A     7 B     8 B     8 A
 -5.765  -5.765  -0.720  -0.700  -0.600  -0.577  -0.569  -0.534
  9 A     9 B    10 A    10 B    11 A    11 B    12 A    12 B
 -0.440  -0.411  -0.393  -0.368  -0.361  -0.316  -0.259  -0.255
 13 A    13 B    14 A    14 B    15 A    15 B    16 B    16 A
 -0.242  -0.240  -0.232  -0.209  -0.201  -0.189  -0.177  -0.099
 17 A    17 B    18 A    19 A    18 B    19 B    20 A    21 A
 -0.097  -0.096  -0.045
 20 B    22 A    21 B

          Ground-State Mulliken Net Atomic Charges

     Atom                 Charge (a.u.)    Spin (a.u.)
  --------------------------------------------------------
      1 S                    -0.147209       0.091925
      2 C                    -0.122865       0.250278
      3 C                    -0.332342      -0.098858
      4 C                    -0.064387       0.233799
      5 C                    -0.110474      -0.008616
      6 H                     0.078904       0.021180
      7 C                    -0.110474      -0.008616
      8 S                    -0.147209       0.091925
      9 C                    -0.064387       0.233799
     10 C                    -0.122865       0.250278
     11 C                    -0.332342      -0.098858
     12 H                     0.065147       0.009332
     13 H                     0.133225       0.000960
     14 H                     0.065147       0.009332
     15 H                     0.133225       0.000960
     16 H                     0.078904       0.021180
  --------------------------------------------------------
  Sum of atomic charges =    -1.000000

                    Cartesian Multipole Moments
 -----------------------------------------------------------------
    Charge (ESU x 10^10)
                -4.8032
    Dipole Moment (Debye)
         X       0.0000      Y      -0.0000      Z       0.5521
       Tot       0.5521
    Quadrupole Moments (Debye-Ang)
        XX    -101.0239     XY       0.9748     YY     -84.9630
        XZ       0.0000     YZ       0.0000     ZZ     -86.7826

 Total job time:  200.94s(wall), 221.71s(cpu)
        *  Thank you very much for using Q-Chem.  Have a nice day.  *
