 Q-Chem 4.4, Q-Chem, Inc., Pleasanton, CA (2016)
 Q-Chem 4.4.1 for Intel X86 EM64T Linux

User input:
--------------------------------------------------------------
$comment
<SCF Fix Strategy>{
    "current_method_id": 1,
    "methods": [
        "increase_iter",
        "rca_diis",
        "gwh",
        "gdm",
        "rca",
        "core+rca",
        "fon"
    ],
    "version": 2.0
}</SCF Fix Strategy>
$end

$molecule
 -1  2
 S           1.83794975       -1.27576249       -0.14871336
 C           3.23937819       -0.19806434       -0.14823333
 C           2.83626844        1.12431397       -0.14890172
 C           1.43724334        1.31134696       -0.14931220
 C           0.69606563        0.10654716       -0.14908151
 H           0.95807640        2.28459073       -0.14860036
 C          -0.69610330       -0.10652413       -0.14907621
 S          -1.52552455       -0.76575442        1.29735223
 C          -1.65628334        0.11957242       -1.16289160
 C          -3.10007746       -0.71230843        0.49525385
 C          -2.97476228       -0.21965935       -0.79034925
 H          -3.82670981       -0.10486388       -1.45651053
 H           4.24016475       -0.60708034       -0.14954918
 H           3.54430111        1.94981573       -0.14910914
 H          -3.98825416       -1.03905195        1.01798745
 H          -1.38700024        0.51764748       -2.13542837
$end

$rem
         jobtype = opt
        exchange = b3lyp
           basis = 6-31++g**
  max_scf_cycles = 200
      mem_static = 100
       mem_total = 1500
   scf_algorithm = rca_diis
       scf_guess = sad
$end

$opt
CONSTRAINT
tors 4 5 7 9 70.0
ENDCONSTRAINT
$end

--------------------------------------------------------------

  144   -1104.8240170811      3.12E-09 Convergence criterion met
 Total energy in the final basis set = -1104.8240170811
   23   -1104.8277342601      8.00E-09 Convergence criterion met
 Total energy in the final basis set = -1104.8277342601
   15   -1104.8295321756      6.56E-09 Convergence criterion met
 Total energy in the final basis set = -1104.8295321756
   14   -1104.8302477364      7.69E-09 Convergence criterion met
 Total energy in the final basis set = -1104.8302477364
   13   -1104.8305119218      9.23E-09 Convergence criterion met
 Total energy in the final basis set = -1104.8305119218
   13   -1104.8305956979      4.53E-09 Convergence criterion met
 Total energy in the final basis set = -1104.8305956979
   11   -1104.8306148341      4.88E-09 Convergence criterion met
 Total energy in the final basis set = -1104.8306148341
   10   -1104.8306203260      7.64E-09 Convergence criterion met
 Total energy in the final basis set = -1104.8306203260
    9   -1104.8306215978      7.01E-09 Convergence criterion met
 Total energy in the final basis set = -1104.8306215978

             Standard Nuclear Orientation (Angstroms)
    I     Atom           X                Y                Z
 ----------------------------------------------------------------
    1      S      -1.6452434328     0.5491000130     1.0679232722
    2      C      -3.1727249972     0.0277271153     0.3648714967
    3      C      -2.9740032116    -0.5178888318    -0.8926953485
    4      C      -1.6218701291    -0.5628301537    -1.2961428203
    5      C      -0.7131875488     0.0296873441    -0.3966993845
    6      H      -1.2805421350    -1.0405503873    -2.2093121382
    7      C       0.7131875488    -0.0296873441    -0.3966993845
    8      S       1.6452434328    -0.5491000130     1.0679232722
    9      C       1.6218701291     0.5628301537    -1.2961428203
   10      C       3.1727249972    -0.0277271153     0.3648714967
   11      C       2.9740032116     0.5178888318    -0.8926953485
   12      H       3.7847469223     0.9330869674    -1.4867508413
   13      H      -4.0820361615     0.0499473666     0.9502590801
   14      H      -3.7847469223    -0.9330869674    -1.4867508413
   15      H       4.0820361615    -0.0499473666     0.9502590801
   16      H       1.2805421350     1.0405503873    -2.2093121382
 ----------------------------------------------------------------

    9   -1104.8306220750      4.35E-09 Convergence criterion met
 Total energy in the final basis set = -1104.8306220750
 Final energy is   -1104.83062207502
 **  OPTIMIZATION CONVERGED  **

             Orbital Energies (a.u.) and Symmetries
 --------------------------------------------------------------

 Alpha MOs, Unrestricted
 -- Occupied --
-88.748 -88.748 -10.064 -10.064 -10.057 -10.057 -10.048 -10.048
  1 B     1 A     2 A     2 B     3 B     3 A     4 B     4 A
-10.036 -10.036  -7.807  -7.807  -5.771  -5.771  -5.768  -5.768
  5 A     5 B     6 B     6 A     7 B     7 A     8 B     8 A
 -5.764  -5.764  -0.721  -0.701  -0.603  -0.578  -0.572  -0.536
  9 B     9 A    10 A    10 B    11 A    12 A    11 B    12 B
 -0.445  -0.408  -0.398  -0.370  -0.361  -0.316  -0.259  -0.252
 13 A    14 A    13 B    14 B    15 A    15 B    16 A    17 A
 -0.250  -0.239  -0.235  -0.211  -0.207  -0.190  -0.180  -0.109
 16 B    17 B    18 A    18 B    19 A    20 A    19 B    20 B
 -0.106  -0.101  -0.061   0.055
 21 A    21 B    22 A    22 B

 Beta MOs, Unrestricted
 -- Occupied --
-88.747 -88.747 -10.062 -10.062 -10.054 -10.054 -10.048 -10.048
  1 B     1 A     2 A     2 B     3 B     3 A     4 B     4 A
-10.035 -10.035  -7.806  -7.806  -5.771  -5.771  -5.767  -5.767
  5 B     5 A     6 B     6 A     7 B     7 A     8 B     8 A
 -5.763  -5.763  -0.717  -0.698  -0.598  -0.575  -0.568  -0.532
  9 B     9 A    10 A    10 B    11 A    12 A    11 B    12 B
 -0.438  -0.406  -0.395  -0.367  -0.359  -0.314  -0.257  -0.250
 13 A    14 A    13 B    14 B    15 A    15 B    16 A    17 A
 -0.247  -0.232  -0.231  -0.206  -0.199  -0.187  -0.177  -0.098
 16 B    18 A    17 B    18 B    19 A    20 A    19 B    21 A
 -0.094  -0.092  -0.045
 20 B    21 B    22 A

          Ground-State Mulliken Net Atomic Charges

     Atom                 Charge (a.u.)    Spin (a.u.)
  --------------------------------------------------------
      1 S                    -0.211400       0.125595
      2 C                    -0.192115       0.236687
      3 C                    -0.327114      -0.065428
      4 C                    -0.066285       0.179866
      5 C                    -0.020137       0.034070
      6 H                     0.103855      -0.004683
      7 C                    -0.020137       0.034070
      8 S                    -0.211400       0.125595
      9 C                    -0.066285       0.179866
     10 C                    -0.192115       0.236687
     11 C                    -0.327114      -0.065428
     12 H                     0.071284       0.002569
     13 H                     0.141913      -0.008677
     14 H                     0.071284       0.002569
     15 H                     0.141913      -0.008677
     16 H                     0.103855      -0.004683
  --------------------------------------------------------
  Sum of atomic charges =    -1.000000

                    Cartesian Multipole Moments
 -----------------------------------------------------------------
    Charge (ESU x 10^10)
                -4.8032
    Dipole Moment (Debye)
         X      -0.0000      Y      -0.0000      Z      -0.4041
       Tot       0.4041
    Quadrupole Moments (Debye-Ang)
        XX    -100.4478     XY       2.6992     YY     -86.1518
        XZ       0.0000     YZ      -0.0000     ZZ     -84.0356

 Total job time:  195.13s(wall), 216.40s(cpu)
        *  Thank you very much for using Q-Chem.  Have a nice day.  *
