 Q-Chem 4.4, Q-Chem, Inc., Pleasanton, CA (2016)
 Q-Chem 4.4.1 for Intel X86 EM64T Linux

User input:
--------------------------------------------------------------
$molecule
 -1  2
 S           1.83794975       -1.27576249       -0.14871336
 C           3.23937819       -0.19806434       -0.14823333
 C           2.83626844        1.12431397       -0.14890172
 C           1.43724334        1.31134696       -0.14931220
 C           0.69606563        0.10654716       -0.14908151
 H           0.95807640        2.28459073       -0.14860036
 C          -0.69610330       -0.10652413       -0.14907621
 S          -1.37582008       -1.74392539        0.11847122
 C          -1.76121588        0.80520302       -0.33662835
 C          -3.03344620       -1.14767804       -0.03052517
 C          -3.04116309        0.21420439       -0.26801003
 H          -3.96205569        0.77948792       -0.39119595
 H           4.24016475       -0.60708034       -0.14954918
 H           3.54430111        1.94981573       -0.14910914
 H          -3.86740404       -1.82868819        0.06750066
 H          -1.59266717        1.86147786       -0.51740366
$end

$rem
         jobtype = opt
        exchange = b3lyp
           basis = 6-31++g**
  max_scf_cycles = 100
      mem_static = 100
       mem_total = 1500
$end

$opt
CONSTRAINT
tors 4 5 7 9 10.0
ENDCONSTRAINT
$end

--------------------------------------------------------------

   94   -1104.8440509071      9.36E-09 Convergence criterion met
 Total energy in the final basis set = -1104.8440509071
   12   -1104.8444223798      5.03E-09 Convergence criterion met
 Total energy in the final basis set = -1104.8444223798
   11   -1104.8444856621      6.54E-09 Convergence criterion met
 Total energy in the final basis set = -1104.8444856621
   10   -1104.8445029900      7.36E-09 Convergence criterion met
 Total energy in the final basis set = -1104.8445029900
   10   -1104.8445100968      8.94E-09 Convergence criterion met
 Total energy in the final basis set = -1104.8445100968
   10   -1104.8445120605      6.47E-09 Convergence criterion met
 Total energy in the final basis set = -1104.8445120605

             Standard Nuclear Orientation (Angstroms)
    I     Atom           X                Y                Z
 ----------------------------------------------------------------
    1      S       1.6644386002    -0.0843037344     1.1843912284
    2      C       3.1902782721    -0.0088470913     0.2973839678
    3      C       2.9558535103     0.0695757927    -1.0640750544
    4      C       1.5926860935     0.0765590925    -1.4251223530
    5      C       0.7054375188    -0.0087517726    -0.3242864200
    6      H       1.2398526349     0.1578050199    -2.4474252103
    7      C      -0.7054375188     0.0087517726    -0.3242864200
    8      S      -1.6644386002     0.0843037344     1.1843912284
    9      C      -1.5926860935    -0.0765590925    -1.4251223530
   10      C      -3.1902782721     0.0088470913     0.2973839678
   11      C      -2.9558535103    -0.0695757927    -1.0640750544
   12      H      -3.7617530860    -0.1303622739    -1.7920132506
   13      H       4.1308871242    -0.0125445945     0.8298991102
   14      H       3.7617530860     0.1303622739    -1.7920132506
   15      H      -4.1308871242     0.0125445945     0.8298991102
   16      H      -1.2398526349    -0.1578050199    -2.4474252103
 ----------------------------------------------------------------

    9   -1104.8445127603      6.72E-09 Convergence criterion met
 Total energy in the final basis set = -1104.8445127603
 Final energy is   -1104.84451276032
 **  OPTIMIZATION CONVERGED  **

             Orbital Energies (a.u.) and Symmetries
 --------------------------------------------------------------

 Alpha MOs, Unrestricted
 -- Occupied --
-88.751 -88.751 -10.065 -10.064 -10.056 -10.056 -10.049 -10.049
  1 B     1 A     2 A     2 B     3 B     3 A     4 B     4 A
-10.033 -10.033  -7.810  -7.810  -5.774  -5.774  -5.771  -5.771
  5 B     5 A     6 B     6 A     7 B     7 A     8 B     8 A
 -5.767  -5.767  -0.724  -0.702  -0.606  -0.582  -0.571  -0.535
  9 A     9 B    10 A    10 B    11 A    12 A    11 B    12 B
 -0.447  -0.415  -0.393  -0.368  -0.364  -0.315  -0.262  -0.254
 13 A    14 A    13 B    14 B    15 A    15 B    16 A    17 A
 -0.244  -0.241  -0.240  -0.209  -0.208  -0.197  -0.176  -0.128
 16 B    17 B    18 A    19 A    18 B    20 A    19 B    20 B
 -0.110  -0.101  -0.050   0.047
 21 B    21 A    22 A    22 B

 Beta MOs, Unrestricted
 -- Occupied --
-88.750 -88.750 -10.063 -10.063 -10.052 -10.052 -10.050 -10.050
  1 B     1 A     2 A     2 B     3 B     3 A     4 B     4 A
-10.031 -10.031  -7.809  -7.809  -5.774  -5.774  -5.771  -5.770
  5 B     5 A     6 B     6 A     7 B     7 A     8 B     8 A
 -5.765  -5.765  -0.720  -0.699  -0.600  -0.578  -0.568  -0.531
  9 A     9 B    10 A    10 B    11 A    12 A    11 B    12 B
 -0.440  -0.413  -0.390  -0.365  -0.362  -0.313  -0.260  -0.253
 13 A    14 A    13 B    14 B    15 A    15 B    16 A    17 A
 -0.242  -0.237  -0.230  -0.206  -0.200  -0.195  -0.173  -0.112
 16 B    18 A    17 B    18 B    19 A    20 A    19 B    20 B
 -0.100  -0.093  -0.031
 21 B    21 A    22 A

          Ground-State Mulliken Net Atomic Charges

     Atom                 Charge (a.u.)    Spin (a.u.)
  --------------------------------------------------------
      1 S                    -0.321603       0.103430
      2 C                    -0.096550       0.244598
      3 C                    -0.420492      -0.072004
      4 C                     0.199410       0.242765
      5 C                    -0.158495       0.002335
      6 H                     0.072860      -0.010281
      7 C                    -0.158495       0.002335
      8 S                    -0.321603       0.103430
      9 C                     0.199410       0.242765
     10 C                    -0.096550       0.244598
     11 C                    -0.420492      -0.072004
     12 H                     0.071659       0.004206
     13 H                     0.153212      -0.015049
     14 H                     0.071659       0.004206
     15 H                     0.153212      -0.015049
     16 H                     0.072860      -0.010281
  --------------------------------------------------------
  Sum of atomic charges =    -1.000000

                    Cartesian Multipole Moments
 -----------------------------------------------------------------
    Charge (ESU x 10^10)
                -4.8032
    Dipole Moment (Debye)
         X       0.0000      Y       0.0000      Z      -0.4383
       Tot       0.4383
    Quadrupole Moments (Debye-Ang)
        XX     -99.2341     XY       0.4459     YY     -87.2369
        XZ      -0.0000     YZ      -0.0000     ZZ     -83.4040

 Total job time:  88.27s(wall), 98.56s(cpu)
        *  Thank you very much for using Q-Chem.  Have a nice day.  *
