 Q-Chem 4.4, Q-Chem, Inc., Pleasanton, CA (2016)
 Q-Chem 4.4.1 for Intel X86 EM64T Linux

User input:
--------------------------------------------------------------
$comment
<SCF Fix Strategy>{
    "current_method_id": 1,
    "methods": [
        "increase_iter",
        "rca_diis",
        "gwh",
        "gdm",
        "rca",
        "core+rca",
        "fon"
    ],
    "version": 2.0
}</SCF Fix Strategy>
$end

$molecule
 -1  2
 S           1.83794975       -1.27576249       -0.14871336
 C           3.23937819       -0.19806434       -0.14823333
 C           2.83626844        1.12431397       -0.14890172
 C           1.43724334        1.31134696       -0.14931220
 C           0.69606563        0.10654716       -0.14908151
 H           0.95807640        2.28459073       -0.14860036
 C          -0.69610330       -0.10652413       -0.14907621
 S          -1.56473254       -0.50957480        1.36674463
 C          -1.62880201       -0.05998681       -1.21152358
 C          -3.11754465       -0.59818025        0.52629308
 C          -2.95738003       -0.33323255       -0.82104962
 H          -3.79126987       -0.33642351       -1.51917639
 H           4.24016475       -0.60708034       -0.14954918
 H           3.54430111        1.94981573       -0.14910914
 H          -4.01988736       -0.83236497        1.07383735
 H          -1.33315890        0.16585560       -2.23054039
$end

$rem
         jobtype = opt
        exchange = b3lyp
           basis = 6-31++g**
  max_scf_cycles = 200
      mem_static = 100
       mem_total = 1500
   scf_algorithm = rca_diis
       scf_guess = sad
$end

$opt
CONSTRAINT
tors 4 5 7 9 80.0
ENDCONSTRAINT
$end

--------------------------------------------------------------

  106   -1104.8196426871      3.51E-09 Convergence criterion met
 Total energy in the final basis set = -1104.8196426871
   26   -1104.8238550146      6.57E-09 Convergence criterion met
 Total energy in the final basis set = -1104.8238550146
   16   -1104.8258729434      3.88E-09 Convergence criterion met
 Total energy in the final basis set = -1104.8258729434
   15   -1104.8267785633      5.15E-09 Convergence criterion met
 Total energy in the final basis set = -1104.8267785633
   14   -1104.8270719652      4.84E-09 Convergence criterion met
 Total energy in the final basis set = -1104.8270719652
   13   -1104.8271776028      5.15E-09 Convergence criterion met
 Total energy in the final basis set = -1104.8271776028
   11   -1104.8271986934      7.21E-09 Convergence criterion met
 Total energy in the final basis set = -1104.8271986934
   11   -1104.8272049228      4.08E-09 Convergence criterion met
 Total energy in the final basis set = -1104.8272049228
    9   -1104.8272059519      9.59E-09 Convergence criterion met
 Total energy in the final basis set = -1104.8272059519

             Standard Nuclear Orientation (Angstroms)
    I     Atom           X                Y                Z
 ----------------------------------------------------------------
    1      S      -1.6560663156     0.6478880556     1.0179446125
    2      C      -3.1728500519     0.0362595675     0.3721622419
    3      C      -2.9711256890    -0.6049444781    -0.8392407539
    4      C      -1.6192664969    -0.6572979864    -1.2458622742
    5      C      -0.7155242499     0.0201559983    -0.4084966470
    6      H      -1.2744328611    -1.2043414633    -2.1180623627
    7      C       0.7155242499    -0.0201559983    -0.4084966470
    8      S       1.6560663156    -0.6478880556     1.0179446125
    9      C       1.6192664969     0.6572979864    -1.2458622742
   10      C       3.1728500519    -0.0362595675     0.3721622419
   11      C       2.9711256890     0.6049444781    -0.8392407539
   12      H       3.7756576533     1.0870375469    -1.3894923671
   13      H      -4.0771264603     0.0709057388     0.9652725095
   14      H      -3.7756576533    -1.0870375469    -1.3894923671
   15      H       4.0771264603    -0.0709057388     0.9652725095
   16      H       1.2744328611     1.2043414633    -2.1180623627
 ----------------------------------------------------------------

    8   -1104.8272061508      5.48E-09 Convergence criterion met
 Total energy in the final basis set = -1104.8272061508
 Final energy is   -1104.82720615079
 **  OPTIMIZATION CONVERGED  **

             Orbital Energies (a.u.) and Symmetries
 --------------------------------------------------------------

 Alpha MOs, Unrestricted
 -- Occupied --
-88.747 -88.747 -10.064 -10.063 -10.058 -10.058 -10.048 -10.048
  1 B     1 A     2 A     2 B     3 B     3 A     4 B     4 A
-10.038 -10.038  -7.806  -7.806  -5.770  -5.770  -5.767  -5.767
  5 A     5 B     6 B     6 A     7 B     7 A     8 B     8 A
 -5.763  -5.763  -0.720  -0.701  -0.602  -0.577  -0.572  -0.536
  9 B     9 A    10 A    10 B    11 A    12 A    11 B    12 B
 -0.444  -0.406  -0.400  -0.370  -0.361  -0.316  -0.259  -0.252
 13 A    14 A    13 B    14 B    15 A    15 B    16 A    17 A
 -0.251  -0.239  -0.234  -0.211  -0.207  -0.188  -0.182  -0.107
 16 B    17 B    18 A    18 B    19 A    20 A    19 B    21 A
 -0.105  -0.097  -0.066   0.057
 20 B    21 B    22 A    22 B

 Beta MOs, Unrestricted
 -- Occupied --
-88.747 -88.747 -10.061 -10.061 -10.055 -10.055 -10.048 -10.048
  1 B     1 A     2 A     2 B     3 B     3 A     4 B     4 A
-10.036 -10.036  -7.805  -7.805  -5.770  -5.770  -5.767  -5.767
  5 A     5 B     6 B     6 A     7 B     7 A     8 B     8 A
 -5.762  -5.762  -0.716  -0.698  -0.597  -0.574  -0.569  -0.533
  9 B     9 A    10 A    10 B    11 A    12 A    11 B    12 B
 -0.438  -0.404  -0.396  -0.368  -0.359  -0.314  -0.257  -0.250
 13 A    14 A    13 B    14 B    15 A    15 B    16 A    17 A
 -0.248  -0.232  -0.231  -0.206  -0.199  -0.185  -0.178  -0.099
 16 B    17 B    18 A    18 B    19 A    20 A    19 B    21 A
 -0.093  -0.086  -0.050
 20 B    21 B    22 A

          Ground-State Mulliken Net Atomic Charges

     Atom                 Charge (a.u.)    Spin (a.u.)
  --------------------------------------------------------
      1 S                    -0.193444       0.126694
      2 C                    -0.183494       0.230186
      3 C                    -0.326771      -0.056234
      4 C                    -0.000360       0.169788
      5 C                    -0.112302       0.039665
      6 H                     0.102231      -0.005237
      7 C                    -0.112302       0.039665
      8 S                    -0.193444       0.126694
      9 C                    -0.000360       0.169788
     10 C                    -0.183494       0.230186
     11 C                    -0.326771      -0.056234
     12 H                     0.072060       0.002237
     13 H                     0.142080      -0.007098
     14 H                     0.072060       0.002237
     15 H                     0.142080      -0.007098
     16 H                     0.102231      -0.005237
  --------------------------------------------------------
  Sum of atomic charges =    -1.000000

                    Cartesian Multipole Moments
 -----------------------------------------------------------------
    Charge (ESU x 10^10)
                -4.8032
    Dipole Moment (Debye)
         X       0.0000      Y      -0.0000      Z      -0.3930
       Tot       0.3930
    Quadrupole Moments (Debye-Ang)
        XX    -100.6860     XY       3.0947     YY     -85.9215
        XZ       0.0000     YZ       0.0000     ZZ     -84.2556

 Total job time:  176.96s(wall), 195.01s(cpu)
        *  Thank you very much for using Q-Chem.  Have a nice day.  *
