 Q-Chem 4.4, Q-Chem, Inc., Pleasanton, CA (2016)
 Q-Chem 4.4.2 for Intel X86 EM64T Linux

User input:
--------------------------------------------------------------
$molecule
 1  2
 S           0.00238887        0.06077275        0.00183269
 C           1.73707619        0.03315849        0.00323229
 H           2.27612737        0.05289032        0.94042557
 C           2.24169204       -0.01546201       -1.26965798
 H           3.30285780       -0.04005365       -1.48972496
 C           1.22479222       -0.01612968       -2.26811464
 H           1.42674790       -0.02650987       -3.33334501
 C          -0.05393771        0.02880388       -1.75170966
 C          -1.32450815        0.04889988       -2.45636342
 C          -2.23416442        1.07944120       -2.57698044
 H          -2.07418814        2.05791538       -2.13787460
 C          -3.37730757        0.74051315       -3.35751631
 H          -4.19034094        1.42657815       -3.56580984
 C          -3.33603304       -0.54461423       -3.83067402
 H          -4.05969520       -1.05712788       -4.44964422
 S          -1.90101571       -1.37052831       -3.31286472
$end

$rem
         jobtype = opt
        exchange = b3lyp
           basis = 6-31++g**
  max_scf_cycles = 150
      mem_static = 775
       mem_total = 7750
      sym_ignore = true
        symmetry = false
          thresh = 12
$end

$opt
CONSTRAINT
tors 6 8 9 10 -110.0
ENDCONSTRAINT
$end

--------------------------------------------------------------

   21   -1104.5433278715      5.13E-09 Convergence criterion met
 Total energy in the final basis set = -1104.5433278715
   18   -1104.5505339036      7.35E-09 Convergence criterion met
 Total energy in the final basis set = -1104.5505339036
   15   -1104.5537520001      6.12E-09 Convergence criterion met
 Total energy in the final basis set = -1104.5537520001
   18   -1104.5556315729      3.53E-09 Convergence criterion met
 Total energy in the final basis set = -1104.5556315729
   15   -1104.5562413125      4.93E-09 Convergence criterion met
 Total energy in the final basis set = -1104.5562413125
   11   -1104.5562922041      9.04E-09 Convergence criterion met
 Total energy in the final basis set = -1104.5562922041
   11   -1104.5563080491      7.12E-09 Convergence criterion met
 Total energy in the final basis set = -1104.5563080491

             Standard Nuclear Orientation (Angstroms)
    I     Atom           X                Y                Z
 ----------------------------------------------------------------
    1      S       0.0142719617     0.2810644444     0.0556287732
    2      C       1.7257170301     0.3222961353    -0.0884712599
    3      H       2.3349564150     0.5480106897     0.7789184362
    4      C       2.1734616062     0.0067308333    -1.3706695043
    5      H       3.2190142848     0.0225416418    -1.6539867977
    6      C       1.1272718093    -0.3076785740    -2.2384890487
    7      H       1.2541710995    -0.5515232939    -3.2872408085
    8      C      -0.1460985662    -0.2398485269    -1.6252096978
    9      C      -1.4153591485    -0.1801515376    -2.2692247536
   10      C      -2.2994282881     0.9233183352    -2.3197385171
   11      H      -2.1904997464     1.7841485578    -1.6697658200
   12      C      -3.2796900886     0.7982293891    -3.3045631909
   13      H      -4.0411008751     1.5416603152    -3.5073964163
   14      C      -3.1637449264    -0.3907268502    -4.0235933036
   15      H      -3.8277204266    -0.7518687218    -4.8003148185
   16      S      -1.8247306307    -1.3476552673    -3.5306725425
 ----------------------------------------------------------------

    8   -1104.5563086607      8.92E-09 Convergence criterion met
 Total energy in the final basis set = -1104.5563086607
 Final energy is   -1104.55630866071
 **  OPTIMIZATION CONVERGED  **

                    Orbital Energies (a.u.)
 --------------------------------------------------------------

 Alpha MOs
 -- Occupied --
-89.097 -89.097 -10.433 -10.433 -10.417 -10.417 -10.394 -10.394
-10.379 -10.379  -8.156  -8.156  -6.120  -6.120  -6.116  -6.116
 -6.113  -6.113  -1.085  -1.060  -0.957  -0.930  -0.921  -0.881
 -0.786  -0.753  -0.730  -0.712  -0.699  -0.650  -0.597  -0.593
 -0.587  -0.581  -0.579  -0.556  -0.550  -0.532  -0.522  -0.459
 -0.437  -0.437  -0.403

 Beta MOs
 -- Occupied --
-89.097 -89.097 -10.431 -10.430 -10.413 -10.413 -10.392 -10.392
-10.379 -10.379  -8.156  -8.156  -6.121  -6.120  -6.117  -6.116
 -6.113  -6.113  -1.079  -1.055  -0.950  -0.928  -0.919  -0.871
 -0.781  -0.749  -0.725  -0.709  -0.697  -0.647  -0.591  -0.589
 -0.582  -0.577  -0.577  -0.545  -0.540  -0.530  -0.520  -0.437
 -0.434  -0.428

          Ground-State Mulliken Net Atomic Charges

     Atom                 Charge (a.u.)    Spin (a.u.)
  --------------------------------------------------------
      1 S                     0.176621      -0.056108
      2 C                     0.085725       0.317368
      3 H                     0.251457      -0.015736
      4 C                    -0.382280      -0.030469
      5 H                     0.171295       0.001491
      6 C                     0.156799       0.144359
      7 H                     0.175659      -0.009019
      8 C                    -0.134643       0.148851
      9 C                    -0.134121       0.147022
     10 C                     0.155343       0.144547
     11 H                     0.175247      -0.008958
     12 C                    -0.383826      -0.030373
     13 H                     0.171221       0.001483
     14 C                     0.086770       0.317162
     15 H                     0.251361      -0.015754
     16 S                     0.177374      -0.055866
  --------------------------------------------------------
  Sum of atomic charges =     1.000000

                    Cartesian Multipole Moments
 -----------------------------------------------------------------
    Charge (ESU x 10^10)
                 4.8032
    Dipole Moment (Debye)
         X      -3.1391      Y       0.6467      Z     -10.4063
       Tot      10.8887
    Quadrupole Moments (Debye-Ang)
        XX     -34.4663     XY      -1.5670     YY     -66.1088
        XZ      24.4889     YZ       4.0503     ZZ     -28.9469

 Total job time:  95.76s(wall), 96.06s(cpu)
        *  Thank you very much for using Q-Chem.  Have a nice day.  *
