 Q-Chem 4.4, Q-Chem, Inc., Pleasanton, CA (2016)
 Q-Chem 4.4.2 for Intel X86 EM64T Linux

User input:
--------------------------------------------------------------
$molecule
 1  2
 S           0.00238887        0.06077275        0.00183269
 C           1.73707619        0.03315849        0.00323229
 H           2.27612737        0.05289032        0.94042557
 C           2.24169204       -0.01546201       -1.26965798
 H           3.30285780       -0.04005365       -1.48972496
 C           1.22479222       -0.01612968       -2.26811464
 H           1.42674790       -0.02650987       -3.33334501
 C          -0.05393771        0.02880388       -1.75170966
 C          -1.32450815        0.04889988       -2.45636342
 C          -1.66708120        0.72469450       -3.60961264
 H          -0.96553999        1.34417310       -4.15724780
 C          -3.01287171        0.50085102       -4.02147031
 H          -3.45362893        0.94232722       -4.90799525
 C          -3.69157821       -0.34469097       -3.18388425
 H          -4.71339606       -0.69038065       -3.26048837
 S          -2.69739734       -0.86944748       -1.86260825
$end

$rem
         jobtype = opt
        exchange = b3lyp
           basis = 6-31++g**
  max_scf_cycles = 150
      mem_static = 775
       mem_total = 7750
      sym_ignore = true
        symmetry = false
          thresh = 12
$end

$opt
CONSTRAINT
tors 6 8 9 10 -40.0
ENDCONSTRAINT
$end

--------------------------------------------------------------

   18   -1104.5580250416      4.70E-09 Convergence criterion met
 Total energy in the final basis set = -1104.5580250416
   18   -1104.5641694025      4.70E-09 Convergence criterion met
 Total energy in the final basis set = -1104.5641694025
   18   -1104.5659310051      4.85E-09 Convergence criterion met
 Total energy in the final basis set = -1104.5659310051
   14   -1104.5664967080      7.72E-09 Convergence criterion met
 Total energy in the final basis set = -1104.5664967080
   13   -1104.5665992351      7.22E-09 Convergence criterion met
 Total energy in the final basis set = -1104.5665992351
   13   -1104.5666272645      3.52E-09 Convergence criterion met
 Total energy in the final basis set = -1104.5666272645
   10   -1104.5666304358      8.80E-09 Convergence criterion met
 Total energy in the final basis set = -1104.5666304358

             Standard Nuclear Orientation (Angstroms)
    I     Atom           X                Y                Z
 ----------------------------------------------------------------
    1      S      -0.0155800046    -0.0754815541     0.0397647081
    2      C       1.7015821074    -0.0448060857    -0.0122469360
    3      H       2.2668634384    -0.0765715442     0.9116282324
    4      C       2.2103779749     0.0528013716    -1.3079424395
    5      H       3.2712868463     0.0624341947    -1.5267840751
    6      C       1.2043204347     0.1225547178    -2.2694295921
    7      H       1.3823789249     0.1717656861    -3.3373426702
    8      C      -0.1002373631     0.0857181549    -1.7151263649
    9      C      -1.3092569286    -0.0327334263    -2.4375467613
   10      C      -1.6134365177     0.6056884833    -3.6666554523
   11      H      -0.8786328126     1.1719691805    -4.2270140488
   12      C      -2.9459149330     0.4578622208    -4.0462722779
   13      H      -3.3776428816     0.8735865298    -4.9486657740
   14      C      -3.6829182966    -0.2831754446    -3.1217121681
   15      H      -4.7251931905    -0.5703538504    -3.1955782710
   16      S      -2.7562537083    -0.7873617842    -1.7658080994
 ----------------------------------------------------------------

    9   -1104.5666311680      5.80E-09 Convergence criterion met
 Total energy in the final basis set = -1104.5666311680
 Final energy is   -1104.56663116797
 **  OPTIMIZATION CONVERGED  **

                    Orbital Energies (a.u.)
 --------------------------------------------------------------

 Alpha MOs
 -- Occupied --
-89.098 -89.098 -10.432 -10.431 -10.418 -10.418 -10.393 -10.393
-10.379 -10.379  -8.157  -8.157  -6.121  -6.121  -6.117  -6.117
 -6.114  -6.114  -1.086  -1.061  -0.958  -0.932  -0.921  -0.880
 -0.788  -0.755  -0.728  -0.711  -0.701  -0.649  -0.595  -0.594
 -0.590  -0.584  -0.578  -0.555  -0.550  -0.536  -0.521  -0.467
 -0.440  -0.437  -0.395

 Beta MOs
 -- Occupied --
-89.098 -89.098 -10.430 -10.429 -10.413 -10.413 -10.391 -10.391
-10.379 -10.379  -8.157  -8.157  -6.122  -6.121  -6.118  -6.117
 -6.114  -6.114  -1.080  -1.055  -0.951  -0.930  -0.919  -0.870
 -0.783  -0.752  -0.723  -0.709  -0.699  -0.646  -0.593  -0.587
 -0.582  -0.582  -0.574  -0.546  -0.539  -0.536  -0.520  -0.441
 -0.436  -0.433

          Ground-State Mulliken Net Atomic Charges

     Atom                 Charge (a.u.)    Spin (a.u.)
  --------------------------------------------------------
      1 S                     0.065288      -0.054964
      2 C                     0.026136       0.328661
      3 H                     0.249600      -0.017363
      4 C                    -0.328145      -0.042262
      5 H                     0.172044       0.001564
      6 C                     0.183182       0.156643
      7 H                     0.170029      -0.009836
      8 C                    -0.042735       0.137706
      9 C                    -0.032214       0.138079
     10 C                     0.182546       0.156205
     11 H                     0.169941      -0.009845
     12 C                    -0.328222      -0.042216
     13 H                     0.172047       0.001565
     14 C                     0.026098       0.328332
     15 H                     0.249632      -0.017349
     16 S                     0.064772      -0.054922
  --------------------------------------------------------
  Sum of atomic charges =     1.000000

                    Cartesian Multipole Moments
 -----------------------------------------------------------------
    Charge (ESU x 10^10)
                 4.8032
    Dipole Moment (Debye)
         X      -3.2621      Y       0.2191      Z     -10.1942
       Tot      10.7056
    Quadrupole Moments (Debye-Ang)
        XX     -29.7440     XY       1.9654     YY     -70.7923
        XZ      21.8400     YZ      -4.4388     ZZ     -28.6533

 Total job time:  95.88s(wall), 94.24s(cpu)
        *  Thank you very much for using Q-Chem.  Have a nice day.  *
