 Q-Chem 4.4, Q-Chem, Inc., Pleasanton, CA (2016)
 Q-Chem 4.4.2 for Intel X86 EM64T Linux

User input:
--------------------------------------------------------------
$molecule
 1  2
 S           0.00238887        0.06077275        0.00183269
 C           1.73707619        0.03315849        0.00323229
 H           2.27612737        0.05289032        0.94042557
 C           2.24169204       -0.01546201       -1.26965798
 H           3.30285780       -0.04005365       -1.48972496
 C           1.22479222       -0.01612968       -2.26811464
 H           1.42674790       -0.02650987       -3.33334501
 C          -0.05393771        0.02880388       -1.75170966
 C          -1.32450815        0.04889988       -2.45636342
 C          -2.58176614       -0.27476454       -1.98883577
 H          -2.76565983       -0.58584297       -0.96647018
 C          -3.60757867       -0.12761923       -2.96706971
 H          -4.65570196       -0.32840528       -2.77676159
 C          -3.13135054        0.30856869       -4.17540784
 H          -3.68385711        0.51167586       -5.08258215
 S          -1.41115736        0.53071469       -4.14191324
$end

$rem
         jobtype = opt
        exchange = b3lyp
           basis = 6-31++g**
  max_scf_cycles = 150
      mem_static = 775
       mem_total = 7750
      sym_ignore = true
        symmetry = false
          thresh = 12
$end

$opt
CONSTRAINT
tors 6 8 9 10 160.0
ENDCONSTRAINT
$end

--------------------------------------------------------------

   17   -1104.5640780191      8.87E-09 Convergence criterion met
 Total energy in the final basis set = -1104.5640780191
   14   -1104.5699045101      7.88E-09 Convergence criterion met
 Total energy in the final basis set = -1104.5699045101
   14   -1104.5709074250      6.07E-09 Convergence criterion met
 Total energy in the final basis set = -1104.5709074250
   12   -1104.5710447256      7.56E-09 Convergence criterion met
 Total energy in the final basis set = -1104.5710447256
   11   -1104.5710691829      5.85E-09 Convergence criterion met
 Total energy in the final basis set = -1104.5710691829
   10   -1104.5710761082      6.81E-09 Convergence criterion met
 Total energy in the final basis set = -1104.5710761082
    9   -1104.5710771840      6.13E-09 Convergence criterion met
 Total energy in the final basis set = -1104.5710771840

             Standard Nuclear Orientation (Angstroms)
    I     Atom           X                Y                Z
 ----------------------------------------------------------------
    1      S      -0.0207642776     0.0308016095     0.0226980361
    2      C       1.6916758652    -0.0537701914    -0.0155198473
    3      H       2.2466959845    -0.1142042426     0.9131464997
    4      C       2.2166837999    -0.0209668929    -1.3094217204
    5      H       3.2782827886    -0.0785720954    -1.5169173087
    6      C       1.2257027334     0.0816123472    -2.2822058352
    7      H       1.4222332317     0.1053249153    -3.3481188668
    8      C      -0.0830206503     0.1293664570    -1.7422491972
    9      C      -1.3080723990     0.1520620118    -2.4371603965
   10      C      -2.5949075475    -0.1835664595    -1.9491308335
   11      H      -2.7782617293    -0.4607727030    -0.9171166420
   12      C      -3.5815418538    -0.1410215708    -2.9307661312
   13      H      -4.6266238788    -0.3709028374    -2.7623256091
   14      C      -3.0749074534     0.2252654920    -4.1797458271
   15      H      -3.6327588187     0.3469929282    -5.1007240439
   16      S      -1.3842508749     0.5130485619    -4.1669078769
 ----------------------------------------------------------------

    8   -1104.5710774334      8.84E-09 Convergence criterion met
 Total energy in the final basis set = -1104.5710774334
 Final energy is   -1104.57107743342
 **  OPTIMIZATION CONVERGED  **

                    Orbital Energies (a.u.)
 --------------------------------------------------------------

 Alpha MOs
 -- Occupied --
-89.098 -89.098 -10.432 -10.431 -10.418 -10.418 -10.392 -10.392
-10.380 -10.380  -8.157  -8.157  -6.122  -6.122  -6.118  -6.117
 -6.114  -6.114  -1.086  -1.061  -0.958  -0.934  -0.921  -0.880
 -0.789  -0.759  -0.724  -0.712  -0.701  -0.650  -0.595  -0.594
 -0.589  -0.585  -0.579  -0.555  -0.552  -0.535  -0.520  -0.471
 -0.443  -0.436  -0.392

 Beta MOs
 -- Occupied --
-89.098 -89.098 -10.430 -10.429 -10.414 -10.414 -10.390 -10.390
-10.380 -10.380  -8.157  -8.157  -6.122  -6.122  -6.118  -6.118
 -6.115  -6.115  -1.080  -1.055  -0.952  -0.931  -0.919  -0.870
 -0.784  -0.755  -0.719  -0.710  -0.700  -0.647  -0.593  -0.587
 -0.584  -0.578  -0.577  -0.550  -0.539  -0.534  -0.519  -0.443
 -0.438  -0.432

          Ground-State Mulliken Net Atomic Charges

     Atom                 Charge (a.u.)    Spin (a.u.)
  --------------------------------------------------------
      1 S                     0.009253      -0.046871
      2 C                     0.091119       0.327633
      3 H                     0.252370      -0.016659
      4 C                    -0.334440      -0.034475
      5 H                     0.174531       0.000626
      6 C                     0.411750       0.152199
      7 H                     0.157737      -0.009584
      8 C                    -0.263664       0.127221
      9 C                    -0.260112       0.127105
     10 C                     0.411838       0.152296
     11 H                     0.158058      -0.009602
     12 C                    -0.334559      -0.034555
     13 H                     0.174581       0.000637
     14 C                     0.090577       0.327606
     15 H                     0.252286      -0.016674
     16 S                     0.008675      -0.046903
  --------------------------------------------------------
  Sum of atomic charges =     1.000000

                    Cartesian Multipole Moments
 -----------------------------------------------------------------
    Charge (ESU x 10^10)
                 4.8032
    Dipole Moment (Debye)
         X      -3.3051      Y       0.0843      Z     -10.1178
       Tot      10.6443
    Quadrupole Moments (Debye-Ang)
        XX     -30.9687     XY       0.2259     YY     -72.7287
        XZ      22.1370     YZ      -2.7749     ZZ     -25.7460

 Total job time:  82.77s(wall), 81.19s(cpu)
        *  Thank you very much for using Q-Chem.  Have a nice day.  *
