 Q-Chem 4.4, Q-Chem, Inc., Pleasanton, CA (2016)
 Q-Chem 4.4.2 for Intel X86 EM64T Linux

User input:
--------------------------------------------------------------
$molecule
 1  2
 S           0.00238887        0.06077275        0.00183269
 C           1.73707619        0.03315849        0.00323229
 H           2.27612737        0.05289032        0.94042557
 C           2.24169204       -0.01546201       -1.26965798
 H           3.30285780       -0.04005365       -1.48972496
 C           1.22479222       -0.01612968       -2.26811464
 H           1.42674790       -0.02650987       -3.33334501
 C          -0.05393771        0.02880388       -1.75170966
 C          -1.32450815        0.04889988       -2.45636342
 C          -2.51912638        0.62538391       -2.07611104
 H          -2.63608074        1.17689977       -1.14984434
 C          -3.56320830        0.45256729       -3.03052819
 H          -4.56608740        0.84441609       -2.90489913
 C          -3.16270237       -0.25251408       -4.13487843
 H          -3.74120818       -0.51980274       -5.00858837
 S          -1.50014430       -0.73382863       -4.01752319
$end

$rem
         jobtype = opt
        exchange = b3lyp
           basis = 6-31++g**
  max_scf_cycles = 150
      mem_static = 775
       mem_total = 7750
      sym_ignore = true
        symmetry = false
          thresh = 12
$end

$opt
CONSTRAINT
tors 6 8 9 10 -150.0
ENDCONSTRAINT
$end

--------------------------------------------------------------

   18   -1104.5619685303      4.98E-09 Convergence criterion met
 Total energy in the final basis set = -1104.5619685303
   18   -1104.5679080739      5.70E-09 Convergence criterion met
 Total energy in the final basis set = -1104.5679080739
   13   -1104.5691154230      9.38E-09 Convergence criterion met
 Total energy in the final basis set = -1104.5691154230
   12   -1104.5693877113      8.27E-09 Convergence criterion met
 Total energy in the final basis set = -1104.5693877113
   11   -1104.5694458076      7.75E-09 Convergence criterion met
 Total energy in the final basis set = -1104.5694458076
   11   -1104.5694614887      6.35E-09 Convergence criterion met
 Total energy in the final basis set = -1104.5694614887
    9   -1104.5694633333      6.59E-09 Convergence criterion met
 Total energy in the final basis set = -1104.5694633333

             Standard Nuclear Orientation (Angstroms)
    I     Atom           X                Y                Z
 ----------------------------------------------------------------
    1      S      -0.0166295334     0.1438813246     0.0239724927
    2      C       1.6980461505     0.1521102450    -0.0262000506
    3      H       2.2615576034     0.2533070909     0.8938177589
    4      C       2.2123653134     0.0005057086    -1.3156508508
    5      H       3.2738320458     0.0025926707    -1.5317309945
    6      C       1.2112977259    -0.1373598905    -2.2742548045
    7      H       1.3972737160    -0.2447123350    -3.3368765353
    8      C      -0.0940347455    -0.0919415860    -1.7267816409
    9      C      -1.3238817187    -0.0748323749    -2.4167134960
   10      C      -2.5421645992     0.5236403747    -2.0124070406
   11      H      -2.6734176138     0.9888254642    -1.0419236390
   12      C      -3.5272957000     0.4787814023    -2.9961397396
   13      H      -4.5230953794     0.8911039423    -2.8876247889
   14      C      -3.0875706100    -0.1510414073    -4.1624528764
   15      H      -3.6633051534    -0.3356264247    -5.0617556852
   16      S      -1.4582986416    -0.6797424846    -4.0730759193
 ----------------------------------------------------------------

    8   -1104.5694636706      7.37E-09 Convergence criterion met
 Total energy in the final basis set = -1104.5694636706
 Final energy is   -1104.56946367063
 **  OPTIMIZATION CONVERGED  **

                    Orbital Energies (a.u.)
 --------------------------------------------------------------

 Alpha MOs
 -- Occupied --
-89.098 -89.098 -10.432 -10.431 -10.418 -10.418 -10.392 -10.392
-10.380 -10.380  -8.157  -8.157  -6.121  -6.121  -6.117  -6.117
 -6.114  -6.114  -1.086  -1.061  -0.958  -0.933  -0.921  -0.880
 -0.788  -0.758  -0.725  -0.712  -0.701  -0.650  -0.595  -0.594
 -0.588  -0.585  -0.579  -0.555  -0.552  -0.535  -0.520  -0.469
 -0.442  -0.436  -0.393

 Beta MOs
 -- Occupied --
-89.098 -89.098 -10.430 -10.429 -10.414 -10.414 -10.390 -10.390
-10.380 -10.380  -8.157  -8.157  -6.122  -6.122  -6.118  -6.118
 -6.114  -6.114  -1.080  -1.055  -0.951  -0.931  -0.919  -0.870
 -0.783  -0.754  -0.720  -0.710  -0.699  -0.647  -0.593  -0.587
 -0.584  -0.578  -0.577  -0.549  -0.539  -0.534  -0.519  -0.442
 -0.438  -0.432

          Ground-State Mulliken Net Atomic Charges

     Atom                 Charge (a.u.)    Spin (a.u.)
  --------------------------------------------------------
      1 S                     0.042536      -0.047276
      2 C                     0.093903       0.326276
      3 H                     0.249827      -0.016691
      4 C                    -0.363032      -0.034262
      5 H                     0.173010       0.000684
      6 C                     0.390530       0.156708
      7 H                     0.160830      -0.009356
      8 C                    -0.248935       0.123720
      9 C                    -0.246459       0.124512
     10 C                     0.394184       0.156232
     11 H                     0.161228      -0.009373
     12 C                    -0.365851      -0.034098
     13 H                     0.172921       0.000678
     14 C                     0.094821       0.326202
     15 H                     0.249863      -0.016682
     16 S                     0.040625      -0.047275
  --------------------------------------------------------
  Sum of atomic charges =     1.000000

                    Cartesian Multipole Moments
 -----------------------------------------------------------------
    Charge (ESU x 10^10)
                 4.8032
    Dipole Moment (Debye)
         X      -3.2664      Y       0.4693      Z     -10.1780
       Tot      10.6996
    Quadrupole Moments (Debye-Ang)
        XX     -31.6752     XY      -2.4214     YY     -71.3473
        XZ      22.7248     YZ       2.8794     ZZ     -26.2938

 Total job time:  85.73s(wall), 84.34s(cpu)
        *  Thank you very much for using Q-Chem.  Have a nice day.  *
