 Q-Chem 4.4, Q-Chem, Inc., Pleasanton, CA (2016)
 Q-Chem 4.4.2 for Intel X86 EM64T Linux

User input:
--------------------------------------------------------------
$molecule
 1  2
 S           0.00238887        0.06077275        0.00183269
 C           1.73707619        0.03315849        0.00323229
 H           2.27612737        0.05289032        0.94042557
 C           2.24169204       -0.01546201       -1.26965798
 H           3.30285780       -0.04005365       -1.48972496
 C           1.22479222       -0.01612968       -2.26811464
 H           1.42674790       -0.02650987       -3.33334501
 C          -0.05393771        0.02880388       -1.75170966
 C          -1.32450815        0.04889988       -2.45636342
 C          -2.31837192        1.00567861       -2.42724843
 H          -2.23977204        1.91601295       -1.84335501
 C          -3.43197739        0.69444124       -3.26025436
 H          -4.30084585        1.33341705       -3.36921385
 C          -3.28430360       -0.49580374       -3.92255603
 H          -3.96462540       -0.96729104       -4.61850376
 S          -1.78262199       -1.26726977       -3.52339715
$end

$rem
         jobtype = opt
        exchange = b3lyp
           basis = 6-31++g**
  max_scf_cycles = 150
      mem_static = 775
       mem_total = 7750
      sym_ignore = true
        symmetry = false
          thresh = 12
$end

$opt
CONSTRAINT
tors 6 8 9 10 -120.0
ENDCONSTRAINT
$end

--------------------------------------------------------------

   19   -1104.5492431068      7.84E-09 Convergence criterion met
 Total energy in the final basis set = -1104.5492431068
   18   -1104.5562217079      3.75E-09 Convergence criterion met
 Total energy in the final basis set = -1104.5562217079
   15   -1104.5590507175      4.98E-09 Convergence criterion met
 Total energy in the final basis set = -1104.5590507175
   18   -1104.5603795844      4.81E-09 Convergence criterion met
 Total energy in the final basis set = -1104.5603795844
   13   -1104.5605856073      8.98E-09 Convergence criterion met
 Total energy in the final basis set = -1104.5605856073
   11   -1104.5606219181      5.77E-09 Convergence criterion met
 Total energy in the final basis set = -1104.5606219181
   10   -1104.5606278946      9.84E-09 Convergence criterion met
 Total energy in the final basis set = -1104.5606278946

             Standard Nuclear Orientation (Angstroms)
    I     Atom           X                Y                Z
 ----------------------------------------------------------------
    1      S       0.0030145404     0.2433179419     0.0472394678
    2      C       1.7156622927     0.2861534437    -0.0695930808
    3      H       2.3109962391     0.4881385896     0.8131458680
    4      C       2.1841749813     0.0086531116    -1.3539311019
    5      H       3.2347839634     0.0272416529    -1.6175319167
    6      C       1.1520226936    -0.2717340694    -2.2487996444
    7      H       1.2966389305    -0.4834221900    -3.3021777348
    8      C      -0.1312309840    -0.2132902118    -1.6549051550
    9      C      -1.3893566526    -0.1708122632    -2.3116248367
   10      C      -2.3731561656     0.8425424988    -2.2242171011
   11      H      -2.3361599364     1.6269022687    -1.4767075989
   12      C      -3.3514731832     0.7443089566    -3.2131203318
   13      H      -4.1814116382     1.4316998280    -3.3237219038
   14      C      -3.1372651916    -0.3356979410    -4.0697788804
   15      H      -3.7727029730    -0.6580158699    -4.8863431770
   16      S      -1.7138185763    -1.2204303367    -3.6958865827
 ----------------------------------------------------------------

    9   -1104.5606285113      4.02E-09 Convergence criterion met
 Total energy in the final basis set = -1104.5606285113
 Final energy is   -1104.56062851134
 **  OPTIMIZATION CONVERGED  **

                    Orbital Energies (a.u.)
 --------------------------------------------------------------

 Alpha MOs
 -- Occupied --
-89.097 -89.097 -10.433 -10.432 -10.417 -10.417 -10.393 -10.393
-10.379 -10.379  -8.156  -8.156  -6.121  -6.121  -6.117  -6.116
 -6.113  -6.113  -1.086  -1.060  -0.958  -0.931  -0.921  -0.881
 -0.787  -0.755  -0.729  -0.712  -0.699  -0.650  -0.596  -0.594
 -0.587  -0.582  -0.579  -0.556  -0.551  -0.533  -0.522  -0.462
 -0.438  -0.437  -0.400

 Beta MOs
 -- Occupied --
-89.098 -89.097 -10.431 -10.430 -10.413 -10.413 -10.391 -10.391
-10.379 -10.379  -8.157  -8.156  -6.121  -6.121  -6.117  -6.117
 -6.114  -6.114  -1.080  -1.055  -0.950  -0.929  -0.919  -0.870
 -0.782  -0.751  -0.724  -0.709  -0.698  -0.647  -0.592  -0.589
 -0.582  -0.577  -0.577  -0.546  -0.540  -0.531  -0.520  -0.437
 -0.435  -0.431

          Ground-State Mulliken Net Atomic Charges

     Atom                 Charge (a.u.)    Spin (a.u.)
  --------------------------------------------------------
      1 S                     0.149733      -0.052923
      2 C                     0.098264       0.320888
      3 H                     0.250181      -0.016200
      4 C                    -0.386274      -0.031770
      5 H                     0.170509       0.001177
      6 C                     0.165489       0.152828
      7 H                     0.170616      -0.009211
      8 C                    -0.115836       0.135623
      9 C                    -0.119719       0.134836
     10 C                     0.163676       0.152652
     11 H                     0.170442      -0.009181
     12 C                    -0.386367      -0.031799
     13 H                     0.170362       0.001179
     14 C                     0.097724       0.320887
     15 H                     0.250168      -0.016214
     16 S                     0.151034      -0.052773
  --------------------------------------------------------
  Sum of atomic charges =     1.000000

                    Cartesian Multipole Moments
 -----------------------------------------------------------------
    Charge (ESU x 10^10)
                 4.8032
    Dipole Moment (Debye)
         X      -3.1739      Y       0.6265      Z     -10.3431
       Tot      10.8373
    Quadrupole Moments (Debye-Ang)
        XX     -33.8093     XY      -2.1183     YY     -67.3729
        XZ      24.1000     YZ       4.1645     ZZ     -28.2663

 Total job time:  92.96s(wall), 92.73s(cpu)
        *  Thank you very much for using Q-Chem.  Have a nice day.  *
