 Q-Chem 4.4, Q-Chem, Inc., Pleasanton, CA (2016)
 Q-Chem 4.4.2 for Intel X86 EM64T Linux

User input:
--------------------------------------------------------------
$molecule
 1  2
 S           0.00238887        0.06077275        0.00183269
 C           1.73707619        0.03315849        0.00323229
 H           2.27612737        0.05289032        0.94042557
 C           2.24169204       -0.01546201       -1.26965798
 H           3.30285780       -0.04005365       -1.48972496
 C           1.22479222       -0.01612968       -2.26811464
 H           1.42674790       -0.02650987       -3.33334501
 C          -0.05393771        0.02880388       -1.75170966
 C          -1.32450815        0.04889988       -2.45636342
 C          -2.59028196        0.27947397       -1.95767447
 H          -2.77814859        0.50102688       -0.91295513
 C          -3.61064674        0.23048879       -2.95132477
 H          -4.66195128        0.39547710       -2.74484898
 C          -3.12138231       -0.03521399       -4.20318600
 H          -3.66535902       -0.12026190       -5.13395850
 S          -1.39979365       -0.24810564       -4.18461445
$end

$rem
         jobtype = opt
        exchange = b3lyp
           basis = 6-31++g**
  max_scf_cycles = 150
      mem_static = 775
       mem_total = 7750
      sym_ignore = true
        symmetry = false
          thresh = 12
$end

$opt
CONSTRAINT
tors 6 8 9 10 -170.0
ENDCONSTRAINT
$end

--------------------------------------------------------------

   17   -1104.5652899831      8.58E-09 Convergence criterion met
 Total energy in the final basis set = -1104.5652899831
   14   -1104.5710240857      6.80E-09 Convergence criterion met
 Total energy in the final basis set = -1104.5710240857
   13   -1104.5718651940      5.77E-09 Convergence criterion met
 Total energy in the final basis set = -1104.5718651940
   12   -1104.5719295644      7.50E-09 Convergence criterion met
 Total energy in the final basis set = -1104.5719295644
   11   -1104.5719415636      9.75E-09 Convergence criterion met
 Total energy in the final basis set = -1104.5719415636
   10   -1104.5719461813      4.38E-09 Convergence criterion met
 Total energy in the final basis set = -1104.5719461813

             Standard Nuclear Orientation (Angstroms)
    I     Atom           X                Y                Z
 ----------------------------------------------------------------
    1      S      -0.0215712135     0.0956011679     0.0154418258
    2      C       1.6923466093     0.0681904455    -0.0141594529
    3      H       2.2456621763     0.1031457876     0.9168168308
    4      C       2.2210205429    -0.0086923316    -1.3049376926
    5      H       3.2851998931    -0.0292932115    -1.5059562257
    6      C       1.2306110652    -0.0484279028    -2.2824264814
    7      H       1.4313575910    -0.1002779876    -3.3466170681
    8      C      -0.0815104437    -0.0030862327    -1.7499221256
    9      C      -1.3022623278     0.0139792492    -2.4506108938
   10      C      -2.6012109104     0.2523390938    -1.9374050084
   11      H      -2.7937634490     0.4336556924    -0.8858990556
   12      C      -3.5890454933     0.2406469589    -2.9182775508
   13      H      -4.6432755963     0.4057846437    -2.7319364422
   14      C      -3.0712593567    -0.0038041742    -4.1924980068
   15      H      -3.6262731745    -0.0713887639    -5.1206750572
   16      S      -1.3703529326    -0.2191171147    -4.2029250157
 ----------------------------------------------------------------

    9   -1104.5719471044      7.35E-09 Convergence criterion met
 Total energy in the final basis set = -1104.5719471044
 Final energy is   -1104.57194710442
 **  OPTIMIZATION CONVERGED  **

                    Orbital Energies (a.u.)
 --------------------------------------------------------------

 Alpha MOs
 -- Occupied --
-89.098 -89.098 -10.432 -10.431 -10.418 -10.418 -10.392 -10.392
-10.380 -10.380  -8.157  -8.157  -6.122  -6.122  -6.118  -6.118
 -6.114  -6.114  -1.086  -1.061  -0.959  -0.934  -0.921  -0.880
 -0.789  -0.759  -0.723  -0.712  -0.702  -0.650  -0.595  -0.593
 -0.589  -0.586  -0.579  -0.555  -0.553  -0.536  -0.520  -0.472
 -0.443  -0.436  -0.391

 Beta MOs
 -- Occupied --
-89.098 -89.098 -10.430 -10.429 -10.414 -10.414 -10.390 -10.390
-10.380 -10.380  -8.158  -8.158  -6.122  -6.122  -6.118  -6.118
 -6.115  -6.115  -1.080  -1.055  -0.952  -0.932  -0.919  -0.870
 -0.784  -0.755  -0.719  -0.710  -0.700  -0.647  -0.594  -0.587
 -0.584  -0.579  -0.577  -0.551  -0.539  -0.534  -0.519  -0.445
 -0.439  -0.432

          Ground-State Mulliken Net Atomic Charges

     Atom                 Charge (a.u.)    Spin (a.u.)
  --------------------------------------------------------
      1 S                    -0.021703      -0.047375
      2 C                     0.103105       0.329411
      3 H                     0.256272      -0.016457
      4 C                    -0.335242      -0.034778
      5 H                     0.175978       0.000608
      6 C                     0.435025       0.146345
      7 H                     0.154527      -0.009928
      8 C                    -0.269735       0.132237
      9 C                    -0.265988       0.131994
     10 C                     0.435776       0.146505
     11 H                     0.154877      -0.009934
     12 C                    -0.335136      -0.034766
     13 H                     0.176036       0.000610
     14 C                     0.102958       0.329355
     15 H                     0.256211      -0.016460
     16 S                    -0.022961      -0.047365
  --------------------------------------------------------
  Sum of atomic charges =     1.000000

                    Cartesian Multipole Moments
 -----------------------------------------------------------------
    Charge (ESU x 10^10)
                 4.8032
    Dipole Moment (Debye)
         X      -3.3015      Y       0.3181      Z     -10.1176
       Tot      10.6474
    Quadrupole Moments (Debye-Ang)
        XX     -30.8430     XY      -1.5688     YY     -73.0529
        XZ      22.0309     YZ       0.8447     ZZ     -25.5019

 Total job time:  73.00s(wall), 72.84s(cpu)
        *  Thank you very much for using Q-Chem.  Have a nice day.  *
