 Q-Chem 4.4, Q-Chem, Inc., Pleasanton, CA (2016)
 Q-Chem 4.4.2 for Intel X86 EM64T Linux

User input:
--------------------------------------------------------------
$molecule
 1  2
 S           0.00238887        0.06077275        0.00183269
 C           1.73707619        0.03315849        0.00323229
 H           2.27612737        0.05289032        0.94042557
 C           2.24169204       -0.01546201       -1.26965798
 H           3.30285780       -0.04005365       -1.48972496
 C           1.22479222       -0.01612968       -2.26811464
 H           1.42674790       -0.02650987       -3.33334501
 C          -0.05393771        0.02880388       -1.75170966
 C          -1.32450815        0.04889988       -2.45636342
 C          -2.54806543       -0.44653152       -2.05450058
 H          -2.70091680       -0.92368040       -1.09284395
 C          -3.58658103       -0.23918038       -3.00811244
 H          -4.61324198       -0.55390457       -2.85975274
 C          -3.15375068        0.41399950       -4.13201107
 H          -3.72508858        0.70543623       -5.00271131
 S          -1.45832140        0.77222614       -4.04998349
$end

$rem
         jobtype = opt
        exchange = b3lyp
           basis = 6-31++g**
  max_scf_cycles = 150
      mem_static = 775
       mem_total = 7750
      sym_ignore = true
        symmetry = false
          thresh = 12
$end

$opt
CONSTRAINT
tors 6 8 9 10 150.0
ENDCONSTRAINT
$end

--------------------------------------------------------------

   17   -1104.5619603494      9.59E-09 Convergence criterion met
 Total energy in the final basis set = -1104.5619603494
   18   -1104.5678660605      5.49E-09 Convergence criterion met
 Total energy in the final basis set = -1104.5678660605
   14   -1104.5691282280      5.99E-09 Convergence criterion met
 Total energy in the final basis set = -1104.5691282280
   13   -1104.5694155237      8.32E-09 Convergence criterion met
 Total energy in the final basis set = -1104.5694155237
   11   -1104.5694642879      8.70E-09 Convergence criterion met
 Total energy in the final basis set = -1104.5694642879
   11   -1104.5694782955      6.22E-09 Convergence criterion met
 Total energy in the final basis set = -1104.5694782955
    9   -1104.5694800708      5.70E-09 Convergence criterion met
 Total energy in the final basis set = -1104.5694800708

             Standard Nuclear Orientation (Angstroms)
    I     Atom           X                Y                Z
 ----------------------------------------------------------------
    1      S      -0.0181276165     0.0047937862     0.0305655481
    2      C       1.6934992134    -0.0972983655    -0.0214003356
    3      H       2.2539250823    -0.1919527071     0.9011857069
    4      C       2.2106224511    -0.0253860136    -1.3166107598
    5      H       3.2696789040    -0.0933203351    -1.5338577589
    6      C       1.2150507287     0.1273796533    -2.2786722209
    7      H       1.4028340869     0.1814868208    -3.3449870510
    8      C      -0.0889377267     0.1744634964    -1.7281843045
    9      C      -1.3203209760     0.1959826027    -2.4152213293
   10      C      -2.5676742616    -0.3191300612    -1.9856230799
   11      H      -2.7207343619    -0.7365342135    -0.9968092713
   12      C      -3.5522660461    -0.2611722269    -2.9691902200
   13      H      -4.5685294852    -0.6141651735    -2.8426845314
   14      C      -3.0832023023     0.2959490832    -4.1607169739
   15      H      -3.6512088169     0.4748039463    -5.0660770898
   16      S      -1.4273382431     0.7388348177    -4.0950570286
 ----------------------------------------------------------------

    8   -1104.5694804948      6.50E-09 Convergence criterion met
 Total energy in the final basis set = -1104.5694804948
 Final energy is   -1104.56948049479
 **  OPTIMIZATION CONVERGED  **

                    Orbital Energies (a.u.)
 --------------------------------------------------------------

 Alpha MOs
 -- Occupied --
-89.098 -89.098 -10.432 -10.431 -10.418 -10.418 -10.392 -10.392
-10.380 -10.380  -8.157  -8.157  -6.121  -6.121  -6.117  -6.117
 -6.114  -6.114  -1.086  -1.061  -0.958  -0.933  -0.921  -0.880
 -0.788  -0.758  -0.725  -0.712  -0.701  -0.650  -0.595  -0.594
 -0.588  -0.585  -0.579  -0.555  -0.552  -0.535  -0.520  -0.469
 -0.442  -0.436  -0.393

 Beta MOs
 -- Occupied --
-89.098 -89.098 -10.430 -10.429 -10.414 -10.414 -10.390 -10.390
-10.380 -10.380  -8.157  -8.157  -6.122  -6.122  -6.118  -6.118
 -6.114  -6.114  -1.080  -1.055  -0.951  -0.931  -0.919  -0.870
 -0.784  -0.754  -0.720  -0.710  -0.699  -0.647  -0.593  -0.587
 -0.584  -0.578  -0.577  -0.549  -0.539  -0.534  -0.519  -0.442
 -0.438  -0.432

          Ground-State Mulliken Net Atomic Charges

     Atom                 Charge (a.u.)    Spin (a.u.)
  --------------------------------------------------------
      1 S                     0.042668      -0.047303
      2 C                     0.094069       0.326343
      3 H                     0.249849      -0.016689
      4 C                    -0.363276      -0.034296
      5 H                     0.172982       0.000682
      6 C                     0.390126       0.156734
      7 H                     0.160777      -0.009355
      8 C                    -0.248725       0.123738
      9 C                    -0.246554       0.124532
     10 C                     0.393726       0.156265
     11 H                     0.161265      -0.009372
     12 C                    -0.365562      -0.034159
     13 H                     0.172911       0.000682
     14 C                     0.094806       0.326184
     15 H                     0.249866      -0.016682
     16 S                     0.041073      -0.047303
  --------------------------------------------------------
  Sum of atomic charges =     1.000000

                    Cartesian Multipole Moments
 -----------------------------------------------------------------
    Charge (ESU x 10^10)
                 4.8032
    Dipole Moment (Debye)
         X      -3.2929      Y       0.0029      Z     -10.1430
       Tot      10.6642
    Quadrupole Moments (Debye-Ang)
        XX     -31.4098     XY       0.6819     YY     -71.8571
        XZ      22.4628     YZ      -3.7608     ZZ     -26.2057

 Total job time:  85.42s(wall), 84.96s(cpu)
        *  Thank you very much for using Q-Chem.  Have a nice day.  *
