 Q-Chem 4.4, Q-Chem, Inc., Pleasanton, CA (2016)
 Q-Chem 4.4.2 for Intel X86 EM64T Linux

User input:
--------------------------------------------------------------
$molecule
 1  2
 S           0.00238887        0.06077275        0.00183269
 C           1.73707619        0.03315849        0.00323229
 H           2.27612737        0.05289032        0.94042557
 C           2.24169204       -0.01546201       -1.26965798
 H           3.30285780       -0.04005365       -1.48972496
 C           1.22479222       -0.01612968       -2.26811464
 H           1.42674790       -0.02650987       -3.33334501
 C          -0.05393771        0.02880388       -1.75170966
 C          -1.32450815        0.04889988       -2.45636342
 C          -1.64820904       -0.50356964       -3.67867009
 H          -0.93786328       -1.06447089       -4.27584407
 C          -3.00607248       -0.29276262       -4.05636313
 H          -3.43977962       -0.66188964       -4.97871772
 C          -3.71366908        0.41717585       -3.12232427
 H          -4.75439022        0.71007504       -3.14663173
 S          -2.72258080        0.85651897       -1.76797686
$end

$rem
         jobtype = opt
        exchange = b3lyp
           basis = 6-31++g**
  max_scf_cycles = 150
      mem_static = 775
       mem_total = 7750
      sym_ignore = true
        symmetry = false
          thresh = 12
$end

$opt
CONSTRAINT
tors 6 8 9 10 30.0
ENDCONSTRAINT
$end

--------------------------------------------------------------

   18   -1104.5610318007      5.41E-09 Convergence criterion met
 Total energy in the final basis set = -1104.5610318007
   18   -1104.5670322886      5.03E-09 Convergence criterion met
 Total energy in the final basis set = -1104.5670322886
   18   -1104.5683453863      4.67E-09 Convergence criterion met
 Total energy in the final basis set = -1104.5683453863
   13   -1104.5686517391      9.64E-09 Convergence criterion met
 Total energy in the final basis set = -1104.5686517391
   13   -1104.5687431042      6.56E-09 Convergence criterion met
 Total energy in the final basis set = -1104.5687431042
   12   -1104.5687683994      8.34E-09 Convergence criterion met
 Total energy in the final basis set = -1104.5687683994
   10   -1104.5687716364      7.74E-09 Convergence criterion met
 Total energy in the final basis set = -1104.5687716364

             Standard Nuclear Orientation (Angstroms)
    I     Atom           X                Y                Z
 ----------------------------------------------------------------
    1      S       0.0036135258     0.1785964554     0.0519156512
    2      C       1.7171627348     0.0839977212    -0.0201670169
    3      H       2.2950234487     0.1178555070     0.8957687873
    4      C       2.2055742080    -0.0584282710    -1.3198862251
    5      H       3.2624528267    -0.1175766956    -1.5500822935
    6      C       1.1864366302    -0.1040027912    -2.2682702737
    7      H       1.3520311359    -0.1844276403    -3.3360919535
    8      C      -0.1088996278    -0.0004539202    -1.6999425535
    9      C      -1.3252779603     0.1128064341    -2.4063886264
   10      C      -1.6029753972    -0.4205468688    -3.6910122029
   11      H      -0.8509213396    -0.9150591850    -4.2942627797
   12      C      -2.9349214984    -0.2709893328    -4.0699934190
   13      H      -3.3488551012    -0.6145134370    -5.0102732283
   14      C      -3.6977152273     0.3690690996    -3.0920249201
   15      H      -4.7480206182     0.6297120018    -3.1479980007
   16      S      -2.7940357303     0.7814081028    -1.6912439354
 ----------------------------------------------------------------

    9   -1104.5687722344      5.34E-09 Convergence criterion met
 Total energy in the final basis set = -1104.5687722344
 Final energy is   -1104.56877223440
 **  OPTIMIZATION CONVERGED  **

                    Orbital Energies (a.u.)
 --------------------------------------------------------------

 Alpha MOs
 -- Occupied --
-89.098 -89.098 -10.432 -10.431 -10.418 -10.418 -10.393 -10.393
-10.379 -10.379  -8.157  -8.157  -6.121  -6.121  -6.118  -6.117
 -6.114  -6.114  -1.086  -1.061  -0.958  -0.933  -0.921  -0.880
 -0.788  -0.756  -0.727  -0.711  -0.702  -0.649  -0.595  -0.593
 -0.590  -0.585  -0.577  -0.555  -0.550  -0.537  -0.521  -0.469
 -0.441  -0.436  -0.393

 Beta MOs
 -- Occupied --
-89.098 -89.098 -10.430 -10.429 -10.413 -10.413 -10.391 -10.391
-10.379 -10.379  -8.157  -8.157  -6.122  -6.122  -6.118  -6.118
 -6.115  -6.115  -1.080  -1.055  -0.951  -0.931  -0.919  -0.870
 -0.783  -0.753  -0.722  -0.708  -0.700  -0.646  -0.593  -0.587
 -0.583  -0.581  -0.574  -0.547  -0.539  -0.536  -0.519  -0.443
 -0.437  -0.432

          Ground-State Mulliken Net Atomic Charges

     Atom                 Charge (a.u.)    Spin (a.u.)
  --------------------------------------------------------
      1 S                     0.036257      -0.054354
      2 C                     0.042990       0.330425
      3 H                     0.249467      -0.017597
      4 C                    -0.340708      -0.044453
      5 H                     0.172118       0.001479
      6 C                     0.263626       0.158492
      7 H                     0.160691      -0.009920
      8 C                    -0.090149       0.136226
      9 C                    -0.075900       0.136111
     10 C                     0.261942       0.158087
     11 H                     0.160512      -0.009919
     12 C                    -0.340652      -0.044295
     13 H                     0.172103       0.001472
     14 C                     0.042674       0.330078
     15 H                     0.249515      -0.017580
     16 S                     0.035513      -0.054253
  --------------------------------------------------------
  Sum of atomic charges =     1.000000

                    Cartesian Multipole Moments
 -----------------------------------------------------------------
    Charge (ESU x 10^10)
                 4.8032
    Dipole Moment (Debye)
         X      -3.2691      Y       0.1575      Z     -10.1831
       Tot      10.6961
    Quadrupole Moments (Debye-Ang)
        XX     -29.4940     XY      -2.9058     YY     -71.4134
        XZ      21.6340     YZ       3.1698     ZZ     -28.2938

 Total job time:  92.70s(wall), 92.66s(cpu)
        *  Thank you very much for using Q-Chem.  Have a nice day.  *
