 Q-Chem 4.4, Q-Chem, Inc., Pleasanton, CA (2016)
 Q-Chem 4.4.2 for Intel X86 EM64T Linux

User input:
--------------------------------------------------------------
$molecule
 1  2
 S           0.00238887        0.06077275        0.00183269
 C           1.73707619        0.03315849        0.00323229
 H           2.27612737        0.05289032        0.94042557
 C           2.24169204       -0.01546201       -1.26965798
 H           3.30285780       -0.04005365       -1.48972496
 C           1.22479222       -0.01612968       -2.26811464
 H           1.42674790       -0.02650987       -3.33334501
 C          -0.05393771        0.02880388       -1.75170966
 C          -1.32450815        0.04889988       -2.45636342
 C          -1.77188737       -0.78139534       -3.46358739
 H          -1.18234618       -1.60517259       -3.85043400
 C          -3.08711032       -0.46989222       -3.91529429
 H          -3.60356818       -1.01998728       -4.69360101
 C          -3.63912167        0.59408870       -3.25169632
 H          -4.61743870        1.03544518       -3.38429159
 S          -2.54850820        1.24633227       -2.07073236
$end

$rem
         jobtype = opt
        exchange = b3lyp
           basis = 6-31++g**
  max_scf_cycles = 150
      mem_static = 775
       mem_total = 7750
      sym_ignore = true
        symmetry = false
          thresh = 12
$end

$opt
CONSTRAINT
tors 6 8 9 10 50.0
ENDCONSTRAINT
$end

--------------------------------------------------------------

   18   -1104.5538427447      7.51E-09 Convergence criterion met
 Total energy in the final basis set = -1104.5538427447
   16   -1104.5604456366      3.12E-09 Convergence criterion met
 Total energy in the final basis set = -1104.5604456366
   15   -1104.5626456256      4.19E-09 Convergence criterion met
 Total energy in the final basis set = -1104.5626456256
   15   -1104.5635493827      2.64E-09 Convergence criterion met
 Total energy in the final basis set = -1104.5635493827
   13   -1104.5636974380      8.39E-09 Convergence criterion met
 Total energy in the final basis set = -1104.5636974380
   13   -1104.5637283174      3.47E-09 Convergence criterion met
 Total energy in the final basis set = -1104.5637283174
   10   -1104.5637317490      8.18E-09 Convergence criterion met
 Total energy in the final basis set = -1104.5637317490

             Standard Nuclear Orientation (Angstroms)
    I     Atom           X                Y                Z
 ----------------------------------------------------------------
    1      S      -0.0173609730     0.2641116541     0.0153110590
    2      C       1.6966630675     0.1404964075    -0.0143415860
    3      H       2.2558043584     0.2072802462     0.9114779856
    4      C       2.2092811551    -0.0789659104    -1.2931013443
    5      H       3.2699772822    -0.1543212719    -1.5000424326
    6      C       1.2071070446    -0.1735279482    -2.2572598285
    7      H       1.3880211848    -0.3104580635    -3.3172879570
    8      C      -0.0981099991    -0.0364895865    -1.7214814744
    9      C      -1.2910470344     0.1287618536    -2.4671703331
   10      C      -1.7072027965    -0.6722411515    -3.5603612657
   11      H      -1.0583935421    -1.4085600394    -4.0207249760
   12      C      -3.0266264311    -0.4368171162    -3.9432090668
   13      H      -3.5318743391    -0.9490815366    -4.7531421056
   14      C      -3.6437183877     0.5326551748    -3.1524517121
   15      H      -4.6455926283     0.9293314121    -3.2674563871
   16      S      -2.6236720514     1.1436147056    -1.9118206555
 ----------------------------------------------------------------

    8   -1104.5637323359      8.36E-09 Convergence criterion met
 Total energy in the final basis set = -1104.5637323359
 Final energy is   -1104.56373233593
 **  OPTIMIZATION CONVERGED  **

                    Orbital Energies (a.u.)
 --------------------------------------------------------------

 Alpha MOs
 -- Occupied --
-89.098 -89.098 -10.432 -10.431 -10.417 -10.417 -10.393 -10.393
-10.379 -10.379  -8.157  -8.157  -6.121  -6.121  -6.117  -6.117
 -6.114  -6.114  -1.086  -1.060  -0.958  -0.932  -0.921  -0.881
 -0.787  -0.754  -0.729  -0.711  -0.700  -0.649  -0.594  -0.594
 -0.590  -0.582  -0.578  -0.554  -0.549  -0.536  -0.522  -0.465
 -0.438  -0.438  -0.397

 Beta MOs
 -- Occupied --
-89.098 -89.098 -10.430 -10.429 -10.413 -10.413 -10.391 -10.391
-10.379 -10.379  -8.157  -8.157  -6.121  -6.121  -6.117  -6.117
 -6.114  -6.114  -1.080  -1.055  -0.950  -0.929  -0.919  -0.870
 -0.782  -0.750  -0.724  -0.709  -0.698  -0.646  -0.592  -0.587
 -0.583  -0.580  -0.574  -0.545  -0.539  -0.535  -0.520  -0.439
 -0.434  -0.434

          Ground-State Mulliken Net Atomic Charges

     Atom                 Charge (a.u.)    Spin (a.u.)
  --------------------------------------------------------
      1 S                     0.088507      -0.056177
      2 C                     0.008323       0.326667
      3 H                     0.250238      -0.016988
      4 C                    -0.309125      -0.040210
      5 H                     0.171982       0.001656
      6 C                     0.097201       0.154965
      7 H                     0.178474      -0.009847
      8 C                     0.011974       0.140091
      9 C                     0.015180       0.140422
     10 C                     0.098413       0.154617
     11 H                     0.178312      -0.009860
     12 C                    -0.309825      -0.040164
     13 H                     0.171955       0.001659
     14 C                     0.008518       0.326304
     15 H                     0.250264      -0.016971
     16 S                     0.089609      -0.056163
  --------------------------------------------------------
  Sum of atomic charges =     1.000000

                    Cartesian Multipole Moments
 -----------------------------------------------------------------
    Charge (ESU x 10^10)
                 4.8032
    Dipole Moment (Debye)
         X      -3.2966      Y       0.1670      Z     -10.1323
       Tot      10.6564
    Quadrupole Moments (Debye-Ang)
        XX     -30.2234     XY      -3.4701     YY     -68.8430
        XZ      22.5723     YZ       4.2793     ZZ     -30.3775

 Total job time:  91.35s(wall), 91.56s(cpu)
        *  Thank you very much for using Q-Chem.  Have a nice day.  *
