 Q-Chem 4.4, Q-Chem, Inc., Pleasanton, CA (2016)
 Q-Chem 4.4.2 for Intel X86 EM64T Linux

User input:
--------------------------------------------------------------
$molecule
 1  2
 S           0.00238887        0.06077275        0.00183269
 C           1.73707619        0.03315849        0.00323229
 H           2.27612737        0.05289032        0.94042557
 C           2.24169204       -0.01546201       -1.26965798
 H           3.30285780       -0.04005365       -1.48972496
 C           1.22479222       -0.01612968       -2.26811464
 H           1.42674790       -0.02650987       -3.33334501
 C          -0.05393771        0.02880388       -1.75170966
 C          -1.32450815        0.04889988       -2.45636342
 C          -1.87878338        1.05691509       -3.21841508
 H          -1.37790393        2.00231287       -3.39493952
 C          -3.14804684        0.71935187       -3.77150284
 H          -3.72690446        1.38393152       -4.40265447
 C          -3.55716209       -0.54335979       -3.43191756
 H          -4.46619816       -1.05529587       -3.71662115
 S          -2.40031074       -1.33723846       -2.41162991
$end

$rem
         jobtype = opt
        exchange = b3lyp
           basis = 6-31++g**
  max_scf_cycles = 150
      mem_static = 775
       mem_total = 7750
      sym_ignore = true
        symmetry = false
          thresh = 12
$end

$opt
CONSTRAINT
tors 6 8 9 10 -70.0
ENDCONSTRAINT
$end

--------------------------------------------------------------

   21   -1104.5432814668      4.49E-09 Convergence criterion met
 Total energy in the final basis set = -1104.5432814668
   16   -1104.5502822662      4.66E-09 Convergence criterion met
 Total energy in the final basis set = -1104.5502822662
   15   -1104.5534286436      6.31E-09 Convergence criterion met
 Total energy in the final basis set = -1104.5534286436
   15   -1104.5550947156      4.14E-09 Convergence criterion met
 Total energy in the final basis set = -1104.5550947156
   14   -1104.5555058769      9.83E-09 Convergence criterion met
 Total energy in the final basis set = -1104.5555058769
   12   -1104.5555434196      7.44E-09 Convergence criterion met
 Total energy in the final basis set = -1104.5555434196
   11   -1104.5555553090      9.80E-09 Convergence criterion met
 Total energy in the final basis set = -1104.5555553090

             Standard Nuclear Orientation (Angstroms)
    I     Atom           X                Y                Z
 ----------------------------------------------------------------
    1      S      -0.0606567674    -0.1972490699    -0.0368414216
    2      C       1.6574703296    -0.1537900401    -0.0043339709
    3      H       2.1804010849    -0.2507993832     0.9399795231
    4      C       2.2237328102     0.0559394807    -1.2608616416
    5      H       3.2929969505     0.0728188054    -1.4340951954
    6      C       1.2594262345     0.2235267727    -2.2549688614
    7      H       1.4807231103     0.3664146205    -3.3066857001
    8      C      -0.0685044272     0.1603186315    -1.7666556851
    9      C      -1.2460001411     0.0007876518    -2.5547424144
   10      C      -1.8003919210     0.9657165473    -3.4309670377
   11      H      -1.2507359349     1.8477819387    -3.7399309939
   12      C      -3.1095298498     0.6762316659    -3.8165889340
   13      H      -3.7035755519     1.2917502398    -4.4814429407
   14      C      -3.5851418663    -0.4980825862    -3.2350666280
   15      H      -4.5409357979    -0.9759263709    -3.4159530937
   16      S      -2.4513513324    -1.2324515639    -2.1719506546
 ----------------------------------------------------------------

    9   -1104.5555559075      7.50E-09 Convergence criterion met
 Total energy in the final basis set = -1104.5555559075
 Final energy is   -1104.55555590752
 **  OPTIMIZATION CONVERGED  **

                    Orbital Energies (a.u.)
 --------------------------------------------------------------

 Alpha MOs
 -- Occupied --
-89.097 -89.097 -10.432 -10.432 -10.417 -10.417 -10.393 -10.393
-10.378 -10.378  -8.156  -8.156  -6.121  -6.121  -6.117  -6.117
 -6.113  -6.113  -1.085  -1.060  -0.957  -0.929  -0.921  -0.881
 -0.786  -0.751  -0.732  -0.711  -0.698  -0.650  -0.594  -0.593
 -0.590  -0.579  -0.579  -0.554  -0.548  -0.534  -0.523  -0.458
 -0.439  -0.434  -0.402

 Beta MOs
 -- Occupied --
-89.098 -89.098 -10.430 -10.429 -10.413 -10.413 -10.391 -10.391
-10.379 -10.379  -8.157  -8.157  -6.121  -6.121  -6.117  -6.117
 -6.114  -6.114  -1.079  -1.054  -0.949  -0.927  -0.919  -0.871
 -0.781  -0.747  -0.727  -0.708  -0.696  -0.647  -0.591  -0.586
 -0.584  -0.577  -0.575  -0.542  -0.539  -0.533  -0.521  -0.436
 -0.435  -0.428

          Ground-State Mulliken Net Atomic Charges

     Atom                 Charge (a.u.)    Spin (a.u.)
  --------------------------------------------------------
      1 S                     0.111237      -0.057450
      2 C                    -0.006826       0.317427
      3 H                     0.251205      -0.015914
      4 C                    -0.305552      -0.033496
      5 H                     0.172021       0.001745
      6 C                     0.077501       0.141593
      7 H                     0.190182      -0.009424
      8 C                     0.010586       0.155619
      9 C                     0.010244       0.155677
     10 C                     0.077873       0.141310
     11 H                     0.190149      -0.009434
     12 C                    -0.305762      -0.033495
     13 H                     0.172067       0.001750
     14 C                    -0.007158       0.317458
     15 H                     0.251074      -0.015921
     16 S                     0.111157      -0.057442
  --------------------------------------------------------
  Sum of atomic charges =     1.000000

                    Cartesian Multipole Moments
 -----------------------------------------------------------------
    Charge (ESU x 10^10)
                 4.8032
    Dipole Moment (Debye)
         X      -3.3076      Y       0.1913      Z     -10.1130
       Tot      10.6419
    Quadrupole Moments (Debye-Ang)
        XX     -30.7993     XY       2.0043     YY     -66.7985
        XZ      23.1774     YZ      -5.1927     ZZ     -31.9673

 Total job time:  94.01s(wall), 94.43s(cpu)
        *  Thank you very much for using Q-Chem.  Have a nice day.  *
