 Q-Chem 4.4, Q-Chem, Inc., Pleasanton, CA (2016)
 Q-Chem 4.4.2 for Intel X86 EM64T Linux

User input:
--------------------------------------------------------------
$molecule
 1  2
 S           0.00238887        0.06077275        0.00183269
 C           1.73707619        0.03315849        0.00323229
 H           2.27612737        0.05289032        0.94042557
 C           2.24169204       -0.01546201       -1.26965798
 H           3.30285780       -0.04005365       -1.48972496
 C           1.22479222       -0.01612968       -2.26811464
 H           1.42674790       -0.02650987       -3.33334501
 C          -0.05393771        0.02880388       -1.75170966
 C          -1.32450815        0.04889988       -2.45636342
 C          -1.58556928        0.39657881       -3.76594537
 H          -0.80828419        0.69827185       -4.45921823
 C          -2.96170210        0.28742390       -4.11982162
 H          -3.35016506        0.51093173       -5.10685526
 C          -3.74502092       -0.14390692       -3.08179486
 H          -4.81174129       -0.32140357       -3.07263795
 S          -2.81156773       -0.40802436       -1.64358681
$end

$rem
         jobtype = opt
        exchange = b3lyp
           basis = 6-31++g**
  max_scf_cycles = 150
      mem_static = 775
       mem_total = 7750
      sym_ignore = true
        symmetry = false
          thresh = 12
$end

$opt
CONSTRAINT
tors 6 8 9 10 -20.0
ENDCONSTRAINT
$end

--------------------------------------------------------------

   18   -1104.5628757669      5.75E-09 Convergence criterion met
 Total energy in the final basis set = -1104.5628757669
   15   -1104.5689001584      8.54E-09 Convergence criterion met
 Total energy in the final basis set = -1104.5689001584
   14   -1104.5699248181      7.44E-09 Convergence criterion met
 Total energy in the final basis set = -1104.5699248181
   11   -1104.5700706556      6.84E-09 Convergence criterion met
 Total energy in the final basis set = -1104.5700706556
   18   -1104.5701748218      4.30E-09 Convergence criterion met
 Total energy in the final basis set = -1104.5701748218
   10   -1104.5701890479      6.34E-09 Convergence criterion met
 Total energy in the final basis set = -1104.5701890479
   10   -1104.5701917580      4.67E-09 Convergence criterion met
 Total energy in the final basis set = -1104.5701917580

             Standard Nuclear Orientation (Angstroms)
    I     Atom           X                Y                Z
 ----------------------------------------------------------------
    1      S       0.0054326262     0.0054991621     0.0626781858
    2      C       1.7203947419    -0.0000106940    -0.0201201876
    3      H       2.3010280872    -0.0080711397     0.8946240886
    4      C       2.2075784072     0.0249896266    -1.3280204758
    5      H       3.2647415882     0.0145318824    -1.5640686697
    6      C       1.1869480377     0.0560756199    -2.2747979739
    7      H       1.3529283331     0.0574130263    -3.3452707492
    8      C      -0.1091911011     0.0580704119    -1.6979348076
    9      C      -1.3358401838     0.0015880790    -2.3905022601
   10      C      -1.5498225689     0.3236346543    -3.7553782373
   11      H      -0.7472658382     0.6109695259    -4.4238791587
   12      C      -2.8892397082     0.2579694556    -4.1303406288
   13      H      -3.2601846195     0.4707982602    -5.1255917849
   14      C      -3.7211401873    -0.1090814959    -3.0713293765
   15      H      -4.7951999128    -0.2493010247    -3.1009796405
   16      S      -2.8719817417    -0.3688338000    -1.6023735440
 ----------------------------------------------------------------

    9   -1104.5701925482      9.14E-09 Convergence criterion met
 Total energy in the final basis set = -1104.5701925482
 Final energy is   -1104.57019254822
 **  OPTIMIZATION CONVERGED  **

                    Orbital Energies (a.u.)
 --------------------------------------------------------------

 Alpha MOs
 -- Occupied --
-89.098 -89.098 -10.432 -10.431 -10.418 -10.418 -10.393 -10.393
-10.379 -10.379  -8.157  -8.157  -6.121  -6.121  -6.118  -6.117
 -6.114  -6.114  -1.086  -1.061  -0.959  -0.933  -0.921  -0.880
 -0.789  -0.757  -0.726  -0.711  -0.702  -0.649  -0.595  -0.593
 -0.590  -0.586  -0.577  -0.555  -0.550  -0.538  -0.520  -0.471
 -0.442  -0.436  -0.392

 Beta MOs
 -- Occupied --
-89.098 -89.098 -10.430 -10.430 -10.414 -10.413 -10.391 -10.391
-10.379 -10.379  -8.157  -8.157  -6.122  -6.122  -6.118  -6.118
 -6.115  -6.115  -1.080  -1.055  -0.952  -0.931  -0.919  -0.870
 -0.784  -0.754  -0.721  -0.708  -0.701  -0.646  -0.593  -0.588
 -0.584  -0.580  -0.574  -0.548  -0.539  -0.537  -0.519  -0.444
 -0.438  -0.432

          Ground-State Mulliken Net Atomic Charges

     Atom                 Charge (a.u.)    Spin (a.u.)
  --------------------------------------------------------
      1 S                     0.008111      -0.054495
      2 C                     0.060247       0.332468
      3 H                     0.250015      -0.017686
      4 C                    -0.346908      -0.046739
      5 H                     0.171879       0.001392
      6 C                     0.303461       0.161014
      7 H                     0.151516      -0.010110
      8 C                    -0.100177       0.134200
      9 C                    -0.096178       0.134802
     10 C                     0.304000       0.160168
     11 H                     0.151580      -0.010097
     12 C                    -0.347373      -0.046333
     13 H                     0.171859       0.001384
     14 C                     0.060125       0.331906
     15 H                     0.250023      -0.017675
     16 S                     0.007821      -0.054198
  --------------------------------------------------------
  Sum of atomic charges =     1.000000

                    Cartesian Multipole Moments
 -----------------------------------------------------------------
    Charge (ESU x 10^10)
                 4.8032
    Dipole Moment (Debye)
         X      -3.2486      Y       0.2020      Z     -10.2184
       Tot      10.7242
    Quadrupole Moments (Debye-Ang)
        XX     -29.1214     XY       0.8622     YY     -72.7597
        XZ      21.0935     YZ      -2.5744     ZZ     -27.1768

 Total job time:  89.15s(wall), 88.87s(cpu)
        *  Thank you very much for using Q-Chem.  Have a nice day.  *
