 Q-Chem 4.4, Q-Chem, Inc., Pleasanton, CA (2016)
 Q-Chem 4.4.2 for Intel X86 EM64T Linux

User input:
--------------------------------------------------------------
$molecule
 1  2
 S           0.00238887        0.06077275        0.00183269
 C           1.73707619        0.03315849        0.00323229
 H           2.27612737        0.05289032        0.94042557
 C           2.24169204       -0.01546201       -1.26965798
 H           3.30285780       -0.04005365       -1.48972496
 C           1.22479222       -0.01612968       -2.26811464
 H           1.42674790       -0.02650987       -3.33334501
 C          -0.05393771        0.02880388       -1.75170966
 C          -1.32450815        0.04889988       -2.45636342
 C          -2.50025423       -0.60288023       -2.14516849
 H          -2.60840403       -1.23174421       -1.26844061
 C          -3.55640907       -0.34104636       -3.06542101
 H          -4.55223809       -0.75980077       -2.97562160
 C          -3.18479324        0.50935274       -4.07331845
 H          -3.78220234        0.88065295       -4.89473174
 S          -1.52532776        0.99213782       -3.92289179
$end

$rem
         jobtype = opt
        exchange = b3lyp
           basis = 6-31++g**
  max_scf_cycles = 150
      mem_static = 775
       mem_total = 7750
      sym_ignore = true
        symmetry = false
          thresh = 12
$end

$opt
CONSTRAINT
tors 6 8 9 10 140.0
ENDCONSTRAINT
$end

--------------------------------------------------------------

   18   -1104.5587498152      4.79E-09 Convergence criterion met
 Total energy in the final basis set = -1104.5587498152
   17   -1104.5648862938      9.65E-09 Convergence criterion met
 Total energy in the final basis set = -1104.5648862938
   14   -1104.5665889927      6.57E-09 Convergence criterion met
 Total energy in the final basis set = -1104.5665889927
   14   -1104.5671240497      8.12E-09 Convergence criterion met
 Total energy in the final basis set = -1104.5671240497
   18   -1104.5672291414      6.28E-09 Convergence criterion met
 Total energy in the final basis set = -1104.5672291414
   11   -1104.5672489562      5.81E-09 Convergence criterion met
 Total energy in the final basis set = -1104.5672489562
    9   -1104.5672508129      4.90E-09 Convergence criterion met
 Total energy in the final basis set = -1104.5672508129

             Standard Nuclear Orientation (Angstroms)
    I     Atom           X                Y                Z
 ----------------------------------------------------------------
    1      S      -0.0144167260    -0.0249654081     0.0399261264
    2      C       1.6959862775    -0.1436068029    -0.0308775760
    3      H       2.2638936502    -0.2744396070     0.8827217824
    4      C       2.2021237462    -0.0297294440    -1.3270185976
    5      H       3.2577132554    -0.1070782118    -1.5577212830
    6      C       1.2001494317     0.1751827907    -2.2733435480
    7      H       1.3769091882     0.2634312113    -3.3392262313
    8      C      -0.0976325430     0.2197721713    -1.7089501959
    9      C      -1.3375386454     0.2373943549    -2.3857204894
   10      C      -2.5284360871    -0.4439904118    -2.0359959696
   11      H      -2.6398198956    -0.9874157573    -1.1044575043
   12      C      -3.5099228648    -0.3725615106    -3.0224613204
   13      H      -4.4852406068    -0.8387517558    -2.9525539477
   14      C      -3.0945894939     0.3601927501    -4.1359280263
   15      H      -3.6763801552     0.5896286122    -5.0209035073
   16      S      -1.4891907614     0.9499790689    -3.9965085220
 ----------------------------------------------------------------

    9   -1104.5672512949      2.37E-09 Convergence criterion met
 Total energy in the final basis set = -1104.5672512949
 Final energy is   -1104.56725129488
 **  OPTIMIZATION CONVERGED  **

                    Orbital Energies (a.u.)
 --------------------------------------------------------------

 Alpha MOs
 -- Occupied --
-89.098 -89.098 -10.432 -10.432 -10.418 -10.418 -10.393 -10.392
-10.379 -10.379  -8.157  -8.157  -6.121  -6.121  -6.117  -6.117
 -6.114  -6.114  -1.086  -1.061  -0.958  -0.933  -0.921  -0.880
 -0.788  -0.757  -0.726  -0.712  -0.700  -0.650  -0.595  -0.594
 -0.588  -0.584  -0.579  -0.555  -0.552  -0.534  -0.521  -0.467
 -0.441  -0.436  -0.395

 Beta MOs
 -- Occupied --
-89.098 -89.098 -10.430 -10.430 -10.413 -10.413 -10.391 -10.390
-10.380 -10.380  -8.157  -8.157  -6.121  -6.121  -6.117  -6.117
 -6.114  -6.114  -1.080  -1.055  -0.951  -0.930  -0.919  -0.870
 -0.783  -0.753  -0.721  -0.709  -0.699  -0.647  -0.593  -0.587
 -0.583  -0.578  -0.577  -0.548  -0.539  -0.533  -0.520  -0.440
 -0.437  -0.433

          Ground-State Mulliken Net Atomic Charges

     Atom                 Charge (a.u.)    Spin (a.u.)
  --------------------------------------------------------
      1 S                     0.079791      -0.047767
      2 C                     0.079766       0.323252
      3 H                     0.247033      -0.016966
      4 C                    -0.359667      -0.033180
      5 H                     0.170196       0.000768
      6 C                     0.286066       0.157925
      7 H                     0.163206      -0.009258
      8 C                    -0.158079       0.124905
      9 C                    -0.175487       0.125836
     10 C                     0.289116       0.157800
     11 H                     0.163522      -0.009294
     12 C                    -0.362181      -0.033370
     13 H                     0.170056       0.000779
     14 C                     0.079398       0.323451
     15 H                     0.246973      -0.016964
     16 S                     0.080289      -0.047917
  --------------------------------------------------------
  Sum of atomic charges =     1.000000

                    Cartesian Multipole Moments
 -----------------------------------------------------------------
    Charge (ESU x 10^10)
                 4.8032
    Dipole Moment (Debye)
         X      -3.2738      Y      -0.0709      Z     -10.1801
       Tot      10.6938
    Quadrupole Moments (Debye-Ang)
        XX     -32.0337     XY       0.9542     YY     -70.7083
        XZ      22.8695     YZ      -4.5376     ZZ     -26.7959

 Total job time:  91.26s(wall), 91.55s(cpu)
        *  Thank you very much for using Q-Chem.  Have a nice day.  *
