 Q-Chem 4.4, Q-Chem, Inc., Pleasanton, CA (2016)
 Q-Chem 4.4.2 for Intel X86 EM64T Linux

User input:
--------------------------------------------------------------
$molecule
 1  2
 S           0.00238887        0.06077275        0.00183269
 C           1.73707619        0.03315849        0.00323229
 H           2.27612737        0.05289032        0.94042557
 C           2.24169204       -0.01546201       -1.26965798
 H           3.30285780       -0.04005365       -1.48972496
 C           1.22479222       -0.01612968       -2.26811464
 H           1.42674790       -0.02650987       -3.33334501
 C          -0.05393771        0.02880388       -1.75170966
 C          -1.32450815        0.04889988       -2.45636342
 C          -1.96495247        1.11081935       -3.06150517
 H          -1.54636457        2.11076701       -3.08809293
 C          -3.20342338        0.75576886       -3.67061410
 H          -3.83884888        1.45751412       -4.19870752
 C          -3.50313650       -0.57373841       -3.53019817
 H          -4.36686740       -1.11102363       -3.89731505
 S          -2.27929943       -1.41337840       -2.63199841
$end

$rem
         jobtype = opt
        exchange = b3lyp
           basis = 6-31++g**
  max_scf_cycles = 150
      mem_static = 775
       mem_total = 7750
      sym_ignore = true
        symmetry = false
          thresh = 12
$end

$opt
CONSTRAINT
tors 6 8 9 10 -80.0
ENDCONSTRAINT
$end

--------------------------------------------------------------

   22   -1104.5371537845      4.01E-09 Convergence criterion met
 Total energy in the final basis set = -1104.5371537845
   16   -1104.5441853069      5.41E-09 Convergence criterion met
 Total energy in the final basis set = -1104.5441853069
   15   -1104.5475332229      6.12E-09 Convergence criterion met
 Total energy in the final basis set = -1104.5475332229
   15   -1104.5496308110      4.40E-09 Convergence criterion met
 Total energy in the final basis set = -1104.5496308110
   15   -1104.5504800379      6.62E-09 Convergence criterion met
 Total energy in the final basis set = -1104.5504800379
   13   -1104.5505326113      5.31E-09 Convergence criterion met
 Total energy in the final basis set = -1104.5505326113
   12   -1104.5505504011      7.77E-09 Convergence criterion met
 Total energy in the final basis set = -1104.5505504011
   10   -1104.5505514423      4.83E-09 Convergence criterion met
 Total energy in the final basis set = -1104.5505514423

             Standard Nuclear Orientation (Angstroms)
    I     Atom           X                Y                Z
 ----------------------------------------------------------------
    1      S      -0.0739916279    -0.2266779098    -0.0673210534
    2      C       1.6437395367    -0.1946840417    -0.0072063363
    3      H       2.1520750926    -0.3166120420     0.9422687122
    4      C       2.2295253992     0.0442013075    -1.2490670682
    5      H       3.3010995860     0.0543769276    -1.4080429213
    6      C       1.2801263185     0.2518708844    -2.2508441498
    7      H       1.5171855157     0.4241930169    -3.2947580199
    8      C      -0.0549219735     0.1928172064    -1.7843428979
    9      C      -1.2278611530     0.0397394054    -2.5911122225
   10      C      -1.8840469475     1.0610263021    -3.3192796781
   11      H      -1.4141329451     2.0174390341    -3.5197092879
   12      C      -3.1773411418     0.7179757588    -3.7168777423
   13      H      -3.8357911849     1.3642247464    -4.2848487069
   14      C      -3.5412466638    -0.5570236469    -3.2880307929
   15      H      -4.4574756979    -1.0874212120    -3.5202674567
   16      S      -2.3265982132    -1.3223467274    -2.3424168481
 ----------------------------------------------------------------

    8   -1104.5505516439      7.62E-09 Convergence criterion met
 Total energy in the final basis set = -1104.5505516439
 Final energy is   -1104.55055164388
 **  OPTIMIZATION CONVERGED  **

                    Orbital Energies (a.u.)
 --------------------------------------------------------------

 Alpha MOs
 -- Occupied --
-89.097 -89.097 -10.433 -10.432 -10.417 -10.417 -10.393 -10.393
-10.378 -10.378  -8.156  -8.156  -6.120  -6.120  -6.116  -6.116
 -6.113  -6.113  -1.085  -1.060  -0.956  -0.928  -0.921  -0.881
 -0.785  -0.749  -0.734  -0.711  -0.697  -0.650  -0.594  -0.592
 -0.590  -0.579  -0.578  -0.554  -0.548  -0.532  -0.523  -0.454
 -0.440  -0.432  -0.406

 Beta MOs
 -- Occupied --
-89.097 -89.097 -10.430 -10.430 -10.413 -10.413 -10.391 -10.391
-10.378 -10.378  -8.156  -8.156  -6.121  -6.121  -6.117  -6.117
 -6.114  -6.114  -1.079  -1.054  -0.948  -0.926  -0.919  -0.871
 -0.780  -0.745  -0.729  -0.708  -0.695  -0.647  -0.590  -0.586
 -0.585  -0.576  -0.575  -0.541  -0.539  -0.532  -0.522  -0.437
 -0.433  -0.423

          Ground-State Mulliken Net Atomic Charges

     Atom                 Charge (a.u.)    Spin (a.u.)
  --------------------------------------------------------
      1 S                     0.120543      -0.056035
      2 C                    -0.003808       0.308931
      3 H                     0.251325      -0.015289
      4 C                    -0.315018      -0.029053
      5 H                     0.172453       0.001703
      6 C                     0.130556       0.126740
      7 H                     0.192438      -0.008555
      8 C                    -0.048525       0.172311
      9 C                    -0.050394       0.170689
     10 C                     0.135520       0.126894
     11 H                     0.192338      -0.008553
     12 C                    -0.318336      -0.029155
     13 H                     0.172407       0.001705
     14 C                    -0.001185       0.309013
     15 H                     0.251309      -0.015287
     16 S                     0.118376      -0.056060
  --------------------------------------------------------
  Sum of atomic charges =     1.000000

                    Cartesian Multipole Moments
 -----------------------------------------------------------------
    Charge (ESU x 10^10)
                 4.8032
    Dipole Moment (Debye)
         X      -3.3277      Y       0.1582      Z     -10.0761
       Tot      10.6126
    Quadrupole Moments (Debye-Ang)
        XX     -31.0541     XY       1.6142     YY     -65.5882
        XZ      23.5183     YZ      -4.7535     ZZ     -33.0876

 Total job time:  106.44s(wall), 105.31s(cpu)
        *  Thank you very much for using Q-Chem.  Have a nice day.  *
