 Q-Chem 4.4, Q-Chem, Inc., Pleasanton, CA (2016)
 Q-Chem 4.4.2 for Intel X86 EM64T Linux

User input:
--------------------------------------------------------------
$molecule
 1  2
 S           0.00238887        0.06077275        0.00183269
 C           1.73707619        0.03315849        0.00323229
 H           2.27612737        0.05289032        0.94042557
 C           2.24169204       -0.01546201       -1.26965798
 H           3.30285780       -0.04005365       -1.48972496
 C           1.22479222       -0.01612968       -2.26811464
 H           1.42674790       -0.02650987       -3.33334501
 C          -0.05393771        0.02880388       -1.75170966
 C          -1.32450815        0.04889988       -2.45636342
 C          -1.60536476       -0.33665453       -3.75116294
 H          -0.85263467       -0.73860961       -4.42022767
 C          -2.97768999       -0.18575937       -4.10448834
 H          -3.38242070       -0.44557594       -5.07597331
 C          -3.73889760        0.31201522       -3.07983347
 H          -4.80071483        0.51670925       -3.06861781
 S          -2.78295918        0.62217778       -1.66579096
$end

$rem
         jobtype = opt
        exchange = b3lyp
           basis = 6-31++g**
  max_scf_cycles = 150
      mem_static = 775
       mem_total = 7750
      sym_ignore = true
        symmetry = false
          thresh = 12
$end

$opt
CONSTRAINT
tors 6 8 9 10 20.0
ENDCONSTRAINT
$end

--------------------------------------------------------------

   18   -1104.5629473058      5.09E-09 Convergence criterion met
 Total energy in the final basis set = -1104.5629473058
   15   -1104.5689325334      8.85E-09 Convergence criterion met
 Total energy in the final basis set = -1104.5689325334
   14   -1104.5699201915      6.72E-09 Convergence criterion met
 Total energy in the final basis set = -1104.5699201915
   11   -1104.5700565616      5.15E-09 Convergence criterion met
 Total energy in the final basis set = -1104.5700565616
   18   -1104.5701681757      3.22E-09 Convergence criterion met
 Total energy in the final basis set = -1104.5701681757
   10   -1104.5701864066      9.57E-09 Convergence criterion met
 Total energy in the final basis set = -1104.5701864066
   10   -1104.5701893883      6.78E-09 Convergence criterion met
 Total energy in the final basis set = -1104.5701893883

             Standard Nuclear Orientation (Angstroms)
    I     Atom           X                Y                Z
 ----------------------------------------------------------------
    1      S       0.0098557938     0.1389250169     0.0611830556
    2      C       1.7231659064     0.0644387055    -0.0222773234
    3      H       2.3057915600     0.0882716347     0.8909234509
    4      C       2.2057263494    -0.0423946933    -1.3278015731
    5      H       3.2617607874    -0.0903689091    -1.5642687013
    6      C       1.1825576734    -0.0712787345    -2.2719087826
    7      H       1.3459948941    -0.1303220096    -3.3411831164
    8      C      -0.1109851953     0.0113514125    -1.6952459278
    9      C      -1.3358298930     0.0919001074    -2.3886364429
   10      C      -1.5688156489    -0.2811940741    -3.7373142136
   11      H      -0.7822580873    -0.6336150762    -4.3935927360
   12      C      -2.9052820190    -0.1723918215    -4.1127167863
   13      H      -3.2890399611    -0.4128806547    -5.0967550372
   14      C      -3.7161721292     0.2787768052    -3.0699736575
   15      H      -4.7829977106     0.4654818817    -3.1042187882
   16      S      -2.8509175202     0.5659733191    -1.6157330401
 ----------------------------------------------------------------

    9   -1104.5701900242      9.41E-09 Convergence criterion met
 Total energy in the final basis set = -1104.5701900242
 Final energy is   -1104.57019002416
 **  OPTIMIZATION CONVERGED  **

                    Orbital Energies (a.u.)
 --------------------------------------------------------------

 Alpha MOs
 -- Occupied --
-89.098 -89.098 -10.432 -10.431 -10.418 -10.418 -10.393 -10.393
-10.379 -10.379  -8.157  -8.157  -6.121  -6.121  -6.118  -6.117
 -6.114  -6.114  -1.086  -1.061  -0.959  -0.933  -0.921  -0.880
 -0.789  -0.757  -0.726  -0.711  -0.702  -0.649  -0.595  -0.593
 -0.590  -0.586  -0.577  -0.555  -0.550  -0.538  -0.520  -0.471
 -0.442  -0.436  -0.392

 Beta MOs
 -- Occupied --
-89.098 -89.098 -10.430 -10.430 -10.414 -10.413 -10.391 -10.391
-10.379 -10.379  -8.157  -8.157  -6.122  -6.122  -6.118  -6.118
 -6.115  -6.115  -1.080  -1.055  -0.952  -0.931  -0.919  -0.870
 -0.784  -0.754  -0.721  -0.708  -0.701  -0.646  -0.593  -0.588
 -0.584  -0.580  -0.574  -0.548  -0.539  -0.537  -0.519  -0.444
 -0.438  -0.432

          Ground-State Mulliken Net Atomic Charges

     Atom                 Charge (a.u.)    Spin (a.u.)
  --------------------------------------------------------
      1 S                     0.007585      -0.054441
      2 C                     0.060587       0.332435
      3 H                     0.250067      -0.017682
      4 C                    -0.347069      -0.046677
      5 H                     0.171889       0.001388
      6 C                     0.304379       0.160898
      7 H                     0.151618      -0.010108
      8 C                    -0.103500       0.134500
      9 C                    -0.093524       0.134536
     10 C                     0.304297       0.160120
     11 H                     0.151637      -0.010100
     12 C                    -0.347379      -0.046303
     13 H                     0.171856       0.001378
     14 C                     0.060445       0.331936
     15 H                     0.250105      -0.017668
     16 S                     0.007006      -0.054211
  --------------------------------------------------------
  Sum of atomic charges =     1.000000

                    Cartesian Multipole Moments
 -----------------------------------------------------------------
    Charge (ESU x 10^10)
                 4.8032
    Dipole Moment (Debye)
         X      -3.2592      Y       0.1624      Z     -10.2002
       Tot      10.7095
    Quadrupole Moments (Debye-Ang)
        XX     -29.1957     XY      -2.3114     YY     -72.4061
        XZ      21.2448     YZ       2.2339     ZZ     -27.5201

 Total job time:  90.00s(wall), 89.42s(cpu)
        *  Thank you very much for using Q-Chem.  Have a nice day.  *
