 Q-Chem 4.4, Q-Chem, Inc., Pleasanton, CA (2016)
 Q-Chem 4.4.2 for Intel X86 EM64T Linux

User input:
--------------------------------------------------------------
$molecule
 1  2
 S           0.00238887        0.06077275        0.00183269
 C           1.73707619        0.03315849        0.00323229
 H           2.27612737        0.05289032        0.94042557
 C           2.24169204       -0.01546201       -1.26965798
 H           3.30285780       -0.04005365       -1.48972496
 C           1.22479222       -0.01612968       -2.26811464
 H           1.42674790       -0.02650987       -3.33334501
 C          -0.05393771        0.02880388       -1.75170966
 C          -1.32450815        0.04889988       -2.45636342
 C          -2.60033239       -0.09279835       -1.95016924
 H          -2.80066592       -0.22849695       -0.89315910
 C          -3.61876400       -0.00975265       -2.94353986
 H          -4.67832790       -0.09015457       -2.72916980
 C          -3.11827342        0.19626375       -4.20219017
 H          -3.65976074        0.30525913       -5.13191742
 S          -1.38526871        0.27494170       -4.19588780
$end

$rem
         jobtype = opt
        exchange = b3lyp
           basis = 6-31++g**
  max_scf_cycles = 150
      mem_static = 775
       mem_total = 7750
      sym_ignore = true
        symmetry = false
          thresh = 12
$end

$opt
CONSTRAINT
tors 6 8 9 10 170.0
ENDCONSTRAINT
$end

--------------------------------------------------------------

   17   -1104.5652510745      8.16E-09 Convergence criterion met
 Total energy in the final basis set = -1104.5652510745
   15   -1104.5710018670      4.24E-09 Convergence criterion met
 Total energy in the final basis set = -1104.5710018670
   13   -1104.5718623319      5.63E-09 Convergence criterion met
 Total energy in the final basis set = -1104.5718623319
   12   -1104.5719268958      8.00E-09 Convergence criterion met
 Total energy in the final basis set = -1104.5719268958
   11   -1104.5719350163      7.76E-09 Convergence criterion met
 Total energy in the final basis set = -1104.5719350163
   10   -1104.5719370561      3.57E-09 Convergence criterion met
 Total energy in the final basis set = -1104.5719370561

             Standard Nuclear Orientation (Angstroms)
    I     Atom           X                Y                Z
 ----------------------------------------------------------------
    1      S      -0.0220688773     0.0546983584     0.0173504193
    2      C       1.6908788471    -0.0110557943    -0.0124869457
    3      H       2.2429694419    -0.0374664645     0.9194951513
    4      C       2.2205257649    -0.0162275307    -1.3050921028
    5      H       3.2838596271    -0.0620954224    -1.5064238926
    6      C       1.2319490824     0.0361394064    -2.2838775031
    7      H       1.4335862455     0.0317280836    -3.3491442187
    8      C      -0.0797919902     0.0836624839    -1.7505996558
    9      C      -1.3009616893     0.1051859400    -2.4504118344
   10      C      -2.6099115052    -0.0413710139    -1.9283280645
   11      H      -2.8097884807    -0.1718288957    -0.8706922186
   12      C      -3.5977467226    -0.0138931305    -2.9089071188
   13      H      -4.6589434900    -0.1143927697    -2.7162179696
   14      C      -3.0701835078     0.1519822616    -4.1916988731
   15      H      -3.6225037041     0.2134661065    -5.1219053624
   16      S      -1.3600255917     0.2731005514    -4.2105183205
 ----------------------------------------------------------------

    8   -1104.5719374812      7.01E-09 Convergence criterion met
 Total energy in the final basis set = -1104.5719374812
 Final energy is   -1104.57193748119
 **  OPTIMIZATION CONVERGED  **

                    Orbital Energies (a.u.)
 --------------------------------------------------------------

 Alpha MOs
 -- Occupied --
-89.098 -89.098 -10.432 -10.431 -10.418 -10.418 -10.392 -10.392
-10.380 -10.380  -8.157  -8.157  -6.122  -6.122  -6.118  -6.118
 -6.114  -6.114  -1.086  -1.061  -0.959  -0.934  -0.921  -0.880
 -0.789  -0.759  -0.723  -0.713  -0.702  -0.650  -0.595  -0.593
 -0.589  -0.586  -0.579  -0.555  -0.553  -0.535  -0.520  -0.472
 -0.443  -0.436  -0.391

 Beta MOs
 -- Occupied --
-89.098 -89.098 -10.430 -10.429 -10.414 -10.414 -10.390 -10.390
-10.380 -10.380  -8.158  -8.158  -6.122  -6.122  -6.118  -6.118
 -6.115  -6.115  -1.080  -1.055  -0.952  -0.932  -0.919  -0.870
 -0.784  -0.755  -0.719  -0.710  -0.700  -0.647  -0.594  -0.587
 -0.584  -0.579  -0.577  -0.551  -0.539  -0.534  -0.519  -0.445
 -0.439  -0.432

          Ground-State Mulliken Net Atomic Charges

     Atom                 Charge (a.u.)    Spin (a.u.)
  --------------------------------------------------------
      1 S                    -0.022539      -0.047388
      2 C                     0.103992       0.329429
      3 H                     0.256322      -0.016455
      4 C                    -0.335857      -0.034819
      5 H                     0.175943       0.000608
      6 C                     0.436887       0.146451
      7 H                     0.154647      -0.009925
      8 C                    -0.270405       0.132148
      9 C                    -0.267484       0.131968
     10 C                     0.435654       0.146551
     11 H                     0.154801      -0.009930
     12 C                    -0.334976      -0.034787
     13 H                     0.176023       0.000611
     14 C                     0.103212       0.329367
     15 H                     0.256244      -0.016461
     16 S                    -0.022463      -0.047368
  --------------------------------------------------------
  Sum of atomic charges =     1.000000

                    Cartesian Multipole Moments
 -----------------------------------------------------------------
    Charge (ESU x 10^10)
                 4.8032
    Dipole Moment (Debye)
         X      -3.3109      Y       0.1656      Z     -10.1061
       Tot      10.6359
    Quadrupole Moments (Debye-Ang)
        XX     -30.7429     XY      -0.3450     YY     -73.2390
        XZ      21.9365     YZ      -1.6189     ZZ     -25.4644

 Total job time:  73.74s(wall), 72.37s(cpu)
        *  Thank you very much for using Q-Chem.  Have a nice day.  *
