 Q-Chem 4.4, Q-Chem, Inc., Pleasanton, CA (2016)
 Q-Chem 4.4.2 for Intel X86 EM64T Linux

User input:
--------------------------------------------------------------
$molecule
 1  2
 S           0.00238887        0.06077275        0.00183269
 C           1.73707619        0.03315849        0.00323229
 H           2.27612737        0.05289032        0.94042557
 C           2.24169204       -0.01546201       -1.26965798
 H           3.30285780       -0.04005365       -1.48972496
 C           1.22479222       -0.01612968       -2.26811464
 H           1.42674790       -0.02650987       -3.33334501
 C          -0.05393771        0.02880388       -1.75170966
 C          -1.32450815        0.04889988       -2.45636342
 C          -2.36849583       -0.85093337       -2.38981801
 H          -2.35207140       -1.72229863       -1.74462743
 C          -3.47246015       -0.50370086       -3.22142915
 H          -4.38251998       -1.08854539       -3.29101800
 C          -3.26879881        0.65863165       -3.91758961
 H          -3.93670542        1.15488512       -4.60832439
 S          -1.71018260        1.34129361       -3.57962005
$end

$rem
         jobtype = opt
        exchange = b3lyp
           basis = 6-31++g**
  max_scf_cycles = 150
      mem_static = 775
       mem_total = 7750
      sym_ignore = true
        symmetry = false
          thresh = 12
$end

$opt
CONSTRAINT
tors 6 8 9 10 120.0
ENDCONSTRAINT
$end

--------------------------------------------------------------

   19   -1104.5494574774      6.84E-09 Convergence criterion met
 Total energy in the final basis set = -1104.5494574774
   18   -1104.5561880187      4.35E-09 Convergence criterion met
 Total energy in the final basis set = -1104.5561880187
   15   -1104.5590676890      5.41E-09 Convergence criterion met
 Total energy in the final basis set = -1104.5590676890
   18   -1104.5603843697      5.75E-09 Convergence criterion met
 Total energy in the final basis set = -1104.5603843697
   14   -1104.5605660736      5.06E-09 Convergence criterion met
 Total energy in the final basis set = -1104.5605660736
   11   -1104.5606024635      9.93E-09 Convergence criterion met
 Total energy in the final basis set = -1104.5606024635
   10   -1104.5606089077      9.91E-09 Convergence criterion met
 Total energy in the final basis set = -1104.5606089077

             Standard Nuclear Orientation (Angstroms)
    I     Atom           X                Y                Z
 ----------------------------------------------------------------
    1      S      -0.0021455848    -0.0957238844     0.0600206015
    2      C       1.7053273714    -0.2324192656    -0.0595306716
    3      H       2.2937224719    -0.4284391340     0.8291888691
    4      C       2.1813304106    -0.0330611727    -1.3555880264
    5      H       3.2282404310    -0.1171226772    -1.6211568807
    6      C       1.1607939624     0.2636403155    -2.2584849836
    7      H       1.3107682876     0.4244001573    -3.3200749770
    8      C      -0.1207620964     0.2970365745    -1.6590585989
    9      C      -1.3828583709     0.2932984766    -2.3094693139
   10      C      -2.4178633981    -0.6626032768    -2.1770402568
   11      H      -2.4180622047    -1.4163843161    -1.3977883343
   12      C      -3.3952914682    -0.5535505340    -3.1656707197
   13      H      -4.2607548734    -1.2002779302    -3.2448438036
   14      C      -3.1294516912     0.4775150146    -4.0670554520
   15      H      -3.7517499638     0.7990026498    -4.8939949998
   16      S      -1.6592409434     1.3003912427    -3.7353042124
 ----------------------------------------------------------------

    9   -1104.5606096068      3.89E-09 Convergence criterion met
 Total energy in the final basis set = -1104.5606096068
 Final energy is   -1104.56060960675
 **  OPTIMIZATION CONVERGED  **

                    Orbital Energies (a.u.)
 --------------------------------------------------------------

 Alpha MOs
 -- Occupied --
-89.097 -89.097 -10.433 -10.432 -10.417 -10.417 -10.393 -10.393
-10.379 -10.379  -8.156  -8.156  -6.121  -6.121  -6.117  -6.116
 -6.113  -6.113  -1.086  -1.060  -0.958  -0.931  -0.921  -0.881
 -0.787  -0.755  -0.729  -0.712  -0.699  -0.650  -0.596  -0.594
 -0.587  -0.582  -0.579  -0.556  -0.551  -0.533  -0.522  -0.462
 -0.438  -0.437  -0.400

 Beta MOs
 -- Occupied --
-89.098 -89.097 -10.431 -10.430 -10.413 -10.413 -10.391 -10.391
-10.379 -10.379  -8.157  -8.156  -6.121  -6.121  -6.117  -6.117
 -6.114  -6.114  -1.080  -1.055  -0.950  -0.929  -0.919  -0.870
 -0.782  -0.751  -0.724  -0.709  -0.698  -0.647  -0.592  -0.589
 -0.583  -0.577  -0.577  -0.546  -0.540  -0.531  -0.520  -0.437
 -0.435  -0.431

          Ground-State Mulliken Net Atomic Charges

     Atom                 Charge (a.u.)    Spin (a.u.)
  --------------------------------------------------------
      1 S                     0.149351      -0.052906
      2 C                     0.098715       0.320874
      3 H                     0.250216      -0.016197
      4 C                    -0.386586      -0.031816
      5 H                     0.170520       0.001177
      6 C                     0.165675       0.153049
      7 H                     0.170443      -0.009191
      8 C                    -0.113760       0.135422
      9 C                    -0.123038       0.134701
     10 C                     0.164533       0.152733
     11 H                     0.170403      -0.009161
     12 C                    -0.385907      -0.031794
     13 H                     0.170351       0.001173
     14 C                     0.097628       0.320853
     15 H                     0.250177      -0.016213
     16 S                     0.151280      -0.052704
  --------------------------------------------------------
  Sum of atomic charges =     1.000000

                    Cartesian Multipole Moments
 -----------------------------------------------------------------
    Charge (ESU x 10^10)
                 4.8032
    Dipole Moment (Debye)
         X      -3.2207      Y      -0.1841      Z     -10.2830
       Tot      10.7771
    Quadrupole Moments (Debye-Ang)
        XX     -33.4729     XY       0.8389     YY     -68.0408
        XZ      23.7551     YZ      -5.3012     ZZ     -28.2043

 Total job time:  93.43s(wall), 93.42s(cpu)
        *  Thank you very much for using Q-Chem.  Have a nice day.  *
