 Q-Chem 4.4, Q-Chem, Inc., Pleasanton, CA (2016)
 Q-Chem 4.4.2 for Intel X86 EM64T Linux

User input:
--------------------------------------------------------------
$molecule
 1  2
 S           0.00238887        0.06077275        0.00183269
 C           1.73707619        0.03315849        0.00323229
 H           2.27612737        0.05289032        0.94042557
 C           2.24169204       -0.01546201       -1.26965798
 H           3.30285780       -0.04005365       -1.48972496
 C           1.22479222       -0.01612968       -2.26811464
 H           1.42674790       -0.02650987       -3.33334501
 C          -0.05393771        0.02880388       -1.75170966
 C          -1.32450815        0.04889988       -2.45636342
 C          -2.20238295       -0.98900508       -2.69327597
 H          -2.02757945       -1.99833813       -2.33759548
 C          -3.36585739       -0.59596420       -3.41627723
 H          -4.16701814       -1.27498768       -3.68490933
 C          -3.37323495        0.73840018       -3.72700453
 H          -4.12873100        1.30129592       -4.25790506
 S          -1.94342567        1.53606874       -3.15350164
$end

$rem
         jobtype = opt
        exchange = b3lyp
           basis = 6-31++g**
  max_scf_cycles = 150
      mem_static = 775
       mem_total = 7750
      sym_ignore = true
        symmetry = false
          thresh = 12
$end

$opt
CONSTRAINT
tors 6 8 9 10 100.0
ENDCONSTRAINT
$end

--------------------------------------------------------------

   21   -1104.5374204785      7.87E-09 Convergence criterion met
 Total energy in the final basis set = -1104.5374204785
   20   -1104.5444397146      7.30E-09 Convergence criterion met
 Total energy in the final basis set = -1104.5444397146
   15   -1104.5478578652      6.79E-09 Convergence criterion met
 Total energy in the final basis set = -1104.5478578652
   18   -1104.5501373737      4.66E-09 Convergence criterion met
 Total energy in the final basis set = -1104.5501373737
   15   -1104.5512097596      5.58E-09 Convergence criterion met
 Total energy in the final basis set = -1104.5512097596
   14   -1104.5513278273      4.53E-09 Convergence criterion met
 Total energy in the final basis set = -1104.5513278273
   11   -1104.5513525340      6.95E-09 Convergence criterion met
 Total energy in the final basis set = -1104.5513525340
   11   -1104.5513573140      7.35E-09 Convergence criterion met
 Total energy in the final basis set = -1104.5513573140

             Standard Nuclear Orientation (Angstroms)
    I     Atom           X                Y                Z
 ----------------------------------------------------------------
    1      S       0.0209997975    -0.1723712143     0.0811694176
    2      C       1.7266877390    -0.2949867837    -0.0938121189
    3      H       2.3427471705    -0.5285872097     0.7666818120
    4      C       2.1616457973    -0.0250839699    -1.3899486560
    5      H       3.1985342399    -0.0973042939    -1.6956003881
    6      C       1.1133291327     0.3272684300    -2.2415102486
    7      H       1.2284204461     0.5483994685    -3.2967132825
    8      C      -0.1481175824     0.3380209618    -1.6010151493
    9      C      -1.4343171903     0.2956944376    -2.2244165061
   10      C      -2.2730152169    -0.8336849398    -2.3737087971
   11      H      -2.1318068119    -1.7392383477    -1.7943226259
   12      C      -3.2566329205    -0.6652928064    -3.3495997226
   13      H      -3.9885504770    -1.4185406254    -3.6153966985
   14      C      -3.1866353658     0.5827138237    -3.9656411427
   15      H      -3.8676528875     0.9841999270    -4.7070476374
   16      S      -1.8806288906     1.5426330023    -3.3930126159
 ----------------------------------------------------------------

    8   -1104.5513576046      9.12E-09 Convergence criterion met
 Total energy in the final basis set = -1104.5513576046
 Final energy is   -1104.55135760460
 **  OPTIMIZATION CONVERGED  **

                    Orbital Energies (a.u.)
 --------------------------------------------------------------

 Alpha MOs
 -- Occupied --
-89.097 -89.097 -10.434 -10.433 -10.417 -10.417 -10.394 -10.394
-10.379 -10.379  -8.156  -8.156  -6.120  -6.120  -6.116  -6.116
 -6.113  -6.113  -1.085  -1.060  -0.957  -0.929  -0.922  -0.881
 -0.785  -0.752  -0.732  -0.712  -0.698  -0.651  -0.597  -0.593
 -0.587  -0.580  -0.579  -0.556  -0.549  -0.531  -0.522  -0.456
 -0.436  -0.436  -0.406

 Beta MOs
 -- Occupied --
-89.097 -89.097 -10.431 -10.431 -10.413 -10.413 -10.392 -10.392
-10.379 -10.379  -8.156  -8.156  -6.120  -6.120  -6.116  -6.116
 -6.113  -6.113  -1.079  -1.055  -0.949  -0.927  -0.920  -0.871
 -0.781  -0.747  -0.727  -0.709  -0.697  -0.648  -0.590  -0.590
 -0.582  -0.577  -0.576  -0.543  -0.541  -0.529  -0.520  -0.438
 -0.434  -0.424

          Ground-State Mulliken Net Atomic Charges

     Atom                 Charge (a.u.)    Spin (a.u.)
  --------------------------------------------------------
      1 S                     0.195557      -0.058838
      2 C                     0.065678       0.311569
      3 H                     0.252030      -0.015234
      4 C                    -0.367370      -0.029255
      5 H                     0.172604       0.001871
      6 C                     0.182471       0.133227
      7 H                     0.179961      -0.008511
      8 C                    -0.182029       0.165523
      9 C                    -0.180117       0.164522
     10 C                     0.182879       0.133345
     11 H                     0.179728      -0.008456
     12 C                    -0.369448      -0.029130
     13 H                     0.172516       0.001852
     14 C                     0.067467       0.311456
     15 H                     0.251991      -0.015246
     16 S                     0.196082      -0.058693
  --------------------------------------------------------
  Sum of atomic charges =     1.000000

                    Cartesian Multipole Moments
 -----------------------------------------------------------------
    Charge (ESU x 10^10)
                 4.8032
    Dipole Moment (Debye)
         X      -3.1602      Y      -0.2279      Z     -10.3938
       Tot      10.8660
    Quadrupole Moments (Debye-Ang)
        XX     -34.6936     XY      -0.1441     YY     -65.5902
        XZ      24.5166     YZ      -4.9364     ZZ     -29.5985

 Total job time:  110.89s(wall), 108.92s(cpu)
        *  Thank you very much for using Q-Chem.  Have a nice day.  *
