 Q-Chem 4.4, Q-Chem, Inc., Pleasanton, CA (2016)
 Q-Chem 4.4.2 for Intel X86 EM64T Linux

User input:
--------------------------------------------------------------
$molecule
 1  2
 S           0.00238887        0.06077275        0.00183269
 C           1.73707619        0.03315849        0.00323229
 H           2.27612737        0.05289032        0.94042557
 C           2.24169204       -0.01546201       -1.26965798
 H           3.30285780       -0.04005365       -1.48972496
 C           1.22479222       -0.01612968       -2.26811464
 H           1.42674790       -0.02650987       -3.33334501
 C          -0.05393771        0.02880388       -1.75170966
 C          -1.32450815        0.04889988       -2.45636342
 C          -2.39544806        0.90320961       -2.29119375
 H          -2.39159784        1.71760148       -1.57525441
 C          -3.48217046        0.62969689       -3.17159704
 H          -4.40229884        1.20251373       -3.19001585
 C          -3.23724978       -0.42942693       -4.00550638
 H          -3.87815970       -0.84517289       -4.77092852
 S          -1.67421690       -1.12364194       -3.71476768
$end

$rem
         jobtype = opt
        exchange = b3lyp
           basis = 6-31++g**
  max_scf_cycles = 150
      mem_static = 775
       mem_total = 7750
      sym_ignore = true
        symmetry = false
          thresh = 12
$end

$opt
CONSTRAINT
tors 6 8 9 10 -130.0
ENDCONSTRAINT
$end

--------------------------------------------------------------

   18   -1104.5544462183      4.80E-09 Convergence criterion met
 Total energy in the final basis set = -1104.5544462183
   18   -1104.5610632168      4.55E-09 Convergence criterion met
 Total energy in the final basis set = -1104.5610632168
   15   -1104.5632573032      4.17E-09 Convergence criterion met
 Total energy in the final basis set = -1104.5632573032
   18   -1104.5641567995      5.90E-09 Convergence criterion met
 Total energy in the final basis set = -1104.5641567995
   13   -1104.5642820634      8.39E-09 Convergence criterion met
 Total energy in the final basis set = -1104.5642820634
   11   -1104.5643096692      6.22E-09 Convergence criterion met
 Total energy in the final basis set = -1104.5643096692
    9   -1104.5643129000      9.25E-09 Convergence criterion met
 Total energy in the final basis set = -1104.5643129000

             Standard Nuclear Orientation (Angstroms)
    I     Atom           X                Y                Z
 ----------------------------------------------------------------
    1      S      -0.0057784689     0.2077920036     0.0386375224
    2      C       1.7078926009     0.2451367710    -0.0524764403
    3      H       2.2907156675     0.4181847267     0.8446137142
    4      C       2.1947142039     0.0077401016    -1.3386850594
    5      H       3.2497615008     0.0245291084    -1.5838877109
    6      C       1.1748947555    -0.2311782609    -2.2584216810
    7      H       1.3355260016    -0.4090934907    -3.3156773158
    8      C      -0.1171972753    -0.1793763980    -1.6825115786
    9      C      -1.3645870823    -0.1494039046    -2.3516730340
   10      C      -2.4389887236     0.7476664280    -2.1406947056
   11      H      -2.4665208124     1.4395404425    -1.3064986102
   12      C      -3.4185574470     0.6716327670    -3.1294700999
   13      H      -4.3117367199     1.2839999041    -3.1558168386
   14      C      -3.1163550423    -0.2765189319    -4.1080612434
   15      H      -3.7276626855    -0.5557171793    -4.9581674577
   16      S      -1.6140255230    -1.0637840275    -3.8438982113
 ----------------------------------------------------------------

    9   -1104.5643134309      3.22E-09 Convergence criterion met
 Total energy in the final basis set = -1104.5643134309
 Final energy is   -1104.56431343094
 **  OPTIMIZATION CONVERGED  **

                    Orbital Energies (a.u.)
 --------------------------------------------------------------

 Alpha MOs
 -- Occupied --
-89.098 -89.098 -10.432 -10.432 -10.418 -10.418 -10.393 -10.393
-10.379 -10.379  -8.157  -8.157  -6.121  -6.121  -6.117  -6.117
 -6.114  -6.114  -1.086  -1.061  -0.958  -0.932  -0.921  -0.881
 -0.787  -0.756  -0.727  -0.712  -0.700  -0.650  -0.596  -0.594
 -0.587  -0.583  -0.579  -0.556  -0.551  -0.533  -0.521  -0.464
 -0.440  -0.437  -0.397

 Beta MOs
 -- Occupied --
-89.098 -89.098 -10.430 -10.430 -10.413 -10.413 -10.391 -10.391
-10.380 -10.380  -8.157  -8.157  -6.121  -6.121  -6.117  -6.117
 -6.114  -6.114  -1.080  -1.055  -0.951  -0.929  -0.919  -0.870
 -0.783  -0.752  -0.722  -0.709  -0.698  -0.647  -0.592  -0.588
 -0.583  -0.577  -0.577  -0.547  -0.540  -0.532  -0.520  -0.438
 -0.436  -0.432

          Ground-State Mulliken Net Atomic Charges

     Atom                 Charge (a.u.)    Spin (a.u.)
  --------------------------------------------------------
      1 S                     0.116369      -0.050051
      2 C                     0.096946       0.322698
      3 H                     0.248609      -0.016618
      4 C                    -0.378980      -0.032783
      5 H                     0.170164       0.000944
      6 C                     0.217018       0.157252
      7 H                     0.166161      -0.009257
      8 C                    -0.132169       0.128112
      9 C                    -0.140856       0.127600
     10 C                     0.217525       0.157063
     11 H                     0.166264      -0.009236
     12 C                    -0.379640      -0.032777
     13 H                     0.169960       0.000941
     14 C                     0.096594       0.322611
     15 H                     0.248662      -0.016621
     16 S                     0.117372      -0.049879
  --------------------------------------------------------
  Sum of atomic charges =     1.000000

                    Cartesian Multipole Moments
 -----------------------------------------------------------------
    Charge (ESU x 10^10)
                 4.8032
    Dipole Moment (Debye)
         X      -3.2070      Y       0.5901      Z     -10.2824
       Tot      10.7871
    Quadrupole Moments (Debye-Ang)
        XX     -33.0804     XY      -2.4585     YY     -68.7479
        XZ      23.6496     YZ       4.0103     ZZ     -27.5542

 Total job time:  92.19s(wall), 92.00s(cpu)
        *  Thank you very much for using Q-Chem.  Have a nice day.  *
