 Q-Chem 4.4, Q-Chem, Inc., Pleasanton, CA (2016)
 Q-Chem 4.4.2 for Intel X86 EM64T Linux

User input:
--------------------------------------------------------------
$molecule
 1  2
 S           0.00238887        0.06077275        0.00183269
 C           1.73707619        0.03315849        0.00323229
 H           2.27612737        0.05289032        0.94042557
 C           2.24169204       -0.01546201       -1.26965798
 H           3.30285780       -0.04005365       -1.48972496
 C           1.22479222       -0.01612968       -2.26811464
 H           1.42674790       -0.02650987       -3.33334501
 C          -0.05393771        0.02880388       -1.75170966
 C          -1.32450815        0.04889988       -2.45636342
 C          -2.60320004        0.09383811       -1.93967586
 H          -2.80487143        0.13749987       -0.87513823
 C          -3.61979715        0.11083806       -2.93823785
 H          -4.68043232        0.15360843       -2.71842342
 C          -3.11491669        0.08049702       -4.21154430
 H          -3.65353162        0.09245793       -5.14921810
 S          -1.38144205        0.01267868       -4.21026717
$end

$rem
         jobtype = opt
        exchange = b3lyp
           basis = 6-31++g**
  max_scf_cycles = 150
      mem_static = 775
       mem_total = 7750
      sym_ignore = true
        symmetry = false
          thresh = 12
$end

$opt
CONSTRAINT
tors 6 8 9 10 180.0
ENDCONSTRAINT
$end

--------------------------------------------------------------

   17   -1104.5656154381      8.00E-09 Convergence criterion met
 Total energy in the final basis set = -1104.5656154381
   15   -1104.5713360373      5.23E-09 Convergence criterion met
 Total energy in the final basis set = -1104.5713360373
   13   -1104.5721452287      4.33E-09 Convergence criterion met
 Total energy in the final basis set = -1104.5721452287
   12   -1104.5721879898      5.33E-09 Convergence criterion met
 Total energy in the final basis set = -1104.5721879898
   10   -1104.5721910334      7.16E-09 Convergence criterion met
 Total energy in the final basis set = -1104.5721910334

             Standard Nuclear Orientation (Angstroms)
    I     Atom           X                Y                Z
 ----------------------------------------------------------------
    1      S      -0.0223004768     0.0741803664     0.0148121130
    2      C       1.6910990761     0.0268431467    -0.0120477380
    3      H       2.2422414304     0.0297985754     0.9208668405
    4      C       2.2220296184    -0.0127096824    -1.3035473371
    5      H       3.2862034837    -0.0464214529    -1.5027919208
    6      C       1.2338305043    -0.0047594013    -2.2839280278
    7      H       1.4372783112    -0.0304548489    -3.3485708353
    8      C      -0.0791789631     0.0415760203    -1.7533185938
    9      C      -1.2989015970     0.0608479140    -2.4549517177
   10      C      -2.6119123222     0.1071833824    -1.9243416531
   11      H      -2.8152702777     0.1361940041    -0.8597658943
   12      C      -3.6001590822     0.1133302620    -2.9046871110
   13      H      -4.6643644524     0.1458917534    -2.7054205230
   14      C      -3.0692646073     0.0723397476    -4.1961567662
   15      H      -3.6204424950     0.0680768365    -5.1290454839
   16      S      -1.3558429203     0.0258715866    -4.2230354013
 ----------------------------------------------------------------

    9   -1104.5721915018      4.48E-09 Convergence criterion met
 Total energy in the final basis set = -1104.5721915018
 Final energy is   -1104.57219150177
 **  OPTIMIZATION CONVERGED  **

                    Orbital Energies (a.u.)
 --------------------------------------------------------------

 Alpha MOs
 -- Occupied --
-89.098 -89.098 -10.432 -10.431 -10.418 -10.418 -10.392 -10.392
-10.380 -10.380  -8.157  -8.157  -6.122  -6.122  -6.118  -6.118
 -6.115  -6.115  -1.086  -1.061  -0.959  -0.934  -0.921  -0.880
 -0.789  -0.759  -0.723  -0.713  -0.702  -0.650  -0.595  -0.593
 -0.590  -0.586  -0.579  -0.555  -0.553  -0.536  -0.519  -0.472
 -0.444  -0.435  -0.391

 Beta MOs
 -- Occupied --
-89.099 -89.099 -10.430 -10.429 -10.414 -10.414 -10.390 -10.390
-10.380 -10.380  -8.158  -8.158  -6.122  -6.122  -6.118  -6.118
 -6.115  -6.115  -1.080  -1.055  -0.952  -0.932  -0.919  -0.870
 -0.784  -0.755  -0.719  -0.710  -0.700  -0.647  -0.594  -0.587
 -0.584  -0.579  -0.577  -0.551  -0.539  -0.534  -0.519  -0.445
 -0.439  -0.432

          Ground-State Mulliken Net Atomic Charges

     Atom                 Charge (a.u.)    Spin (a.u.)
  --------------------------------------------------------
      1 S                    -0.041848      -0.048130
      2 C                     0.122123       0.330672
      3 H                     0.259469      -0.016244
      4 C                    -0.361668      -0.035293
      5 H                     0.176585       0.000608
      6 C                     0.475732       0.143805
      7 H                     0.153248      -0.010122
      8 C                    -0.283656       0.134702
      9 C                    -0.283626       0.134703
     10 C                     0.475723       0.143805
     11 H                     0.153251      -0.010122
     12 C                    -0.361653      -0.035292
     13 H                     0.176585       0.000608
     14 C                     0.122120       0.330671
     15 H                     0.259469      -0.016244
     16 S                    -0.041855      -0.048129
  --------------------------------------------------------
  Sum of atomic charges =     1.000000

                    Cartesian Multipole Moments
 -----------------------------------------------------------------
    Charge (ESU x 10^10)
                 4.8032
    Dipole Moment (Debye)
         X      -3.3097      Y       0.2418      Z     -10.1065
       Tot      10.6374
    Quadrupole Moments (Debye-Ang)
        XX     -30.7206     XY      -0.9694     YY     -73.3475
        XZ      21.8894     YZ      -0.3791     ZZ     -25.3812

 Total job time:  63.35s(wall), 63.10s(cpu)
        *  Thank you very much for using Q-Chem.  Have a nice day.  *
