 Q-Chem 4.4, Q-Chem, Inc., Pleasanton, CA (2016)
 Q-Chem 4.4.2 for Intel X86 EM64T Linux

User input:
--------------------------------------------------------------
$molecule
 1  2
 S           0.00238887        0.06077275        0.00183269
 C           1.73707619        0.03315849        0.00323229
 H           2.27612737        0.05289032        0.94042557
 C           2.24169204       -0.01546201       -1.26965798
 H           3.30285780       -0.04005365       -1.48972496
 C           1.22479222       -0.01612968       -2.26811464
 H           1.42674790       -0.02650987       -3.33334501
 C          -0.05393771        0.02880388       -1.75170966
 C          -1.32450815        0.04889988       -2.45636342
 C          -1.79883960        0.97274763       -3.36496313
 H          -1.22187262        1.83472752       -3.68106098
 C          -3.09682063        0.66350552       -3.86546218
 H          -3.62334704        1.27107184       -4.59259885
 C          -3.60757264       -0.49396988       -3.33961309
 H          -4.55889298       -0.96461282       -3.54689572
 S          -2.51254250       -1.21860328       -2.20588000
$end

$rem
         jobtype = opt
        exchange = b3lyp
           basis = 6-31++g**
  max_scf_cycles = 150
      mem_static = 775
       mem_total = 7750
      sym_ignore = true
        symmetry = false
          thresh = 12
$end

$opt
CONSTRAINT
tors 6 8 9 10 -60.0
ENDCONSTRAINT
$end

--------------------------------------------------------------

   19   -1104.5489444217      9.84E-09 Convergence criterion met
 Total energy in the final basis set = -1104.5489444217
   16   -1104.5557052821      3.26E-09 Convergence criterion met
 Total energy in the final basis set = -1104.5557052821
   15   -1104.5585319819      5.79E-09 Convergence criterion met
 Total energy in the final basis set = -1104.5585319819
   15   -1104.5597882166      4.06E-09 Convergence criterion met
 Total energy in the final basis set = -1104.5597882166
   14   -1104.5599616842      6.87E-09 Convergence criterion met
 Total energy in the final basis set = -1104.5599616842
   13   -1104.5599948569      3.94E-09 Convergence criterion met
 Total energy in the final basis set = -1104.5599948569
   11   -1104.5600002560      7.25E-09 Convergence criterion met
 Total energy in the final basis set = -1104.5600002560

             Standard Nuclear Orientation (Angstroms)
    I     Atom           X                Y                Z
 ----------------------------------------------------------------
    1      S      -0.0455267833    -0.1612593990    -0.0071990409
    2      C       1.6726670033    -0.1129028268    -0.0047699945
    3      H       2.2109541765    -0.1849764387     0.9330228141
    4      C       2.2182069609     0.0622000790    -1.2762145163
    5      H       3.2847105671     0.0821843315    -1.4653020073
    6      C       1.2384973590     0.1913053835    -2.2600667176
    7      H       1.4434124481     0.3028940935    -3.3187706110
    8      C      -0.0812425092     0.1298217861    -1.7479221727
    9      C      -1.2672228227    -0.0261929208    -2.5143161285
   10      C      -1.7261902853     0.8549434265    -3.5248400400
   11      H      -1.1044496063     1.6457049567    -3.9292292704
   12      C      -3.0465724619     0.6177457098    -3.9053436813
   13      H      -3.5791085830     1.1842989823    -4.6597204466
   14      C      -3.6235081776    -0.4319858520    -3.1912671205
   15      H      -4.6137192790    -0.8500360751    -3.3297013630
   16      S      -2.5675594866    -1.1125085967    -2.0182587733
 ----------------------------------------------------------------

    9   -1104.5600009435      7.24E-09 Convergence criterion met
 Total energy in the final basis set = -1104.5600009435
 Final energy is   -1104.56000094347
 **  OPTIMIZATION CONVERGED  **

                    Orbital Energies (a.u.)
 --------------------------------------------------------------

 Alpha MOs
 -- Occupied --
-89.098 -89.098 -10.432 -10.432 -10.417 -10.417 -10.393 -10.393
-10.378 -10.378  -8.157  -8.157  -6.121  -6.121  -6.117  -6.117
 -6.114  -6.113  -1.085  -1.060  -0.957  -0.931  -0.921  -0.881
 -0.786  -0.752  -0.730  -0.711  -0.699  -0.650  -0.594  -0.594
 -0.590  -0.581  -0.578  -0.554  -0.549  -0.535  -0.522  -0.462
 -0.438  -0.436  -0.399

 Beta MOs
 -- Occupied --
-89.098 -89.098 -10.430 -10.429 -10.413 -10.413 -10.391 -10.391
-10.379 -10.379  -8.157  -8.157  -6.121  -6.121  -6.117  -6.117
 -6.114  -6.114  -1.079  -1.054  -0.950  -0.928  -0.919  -0.870
 -0.781  -0.749  -0.725  -0.708  -0.697  -0.647  -0.591  -0.586
 -0.584  -0.579  -0.574  -0.544  -0.539  -0.534  -0.521  -0.437
 -0.435  -0.431

          Ground-State Mulliken Net Atomic Charges

     Atom                 Charge (a.u.)    Spin (a.u.)
  --------------------------------------------------------
      1 S                     0.103423      -0.057212
      2 C                    -0.003527       0.323255
      3 H                     0.250807      -0.016493
      4 C                    -0.300945      -0.037330
      5 H                     0.171922       0.001713
      6 C                     0.058072       0.150865
      7 H                     0.185489      -0.009751
      8 C                     0.033165       0.144929
      9 C                     0.035226       0.145915
     10 C                     0.058169       0.150249
     11 H                     0.185411      -0.009781
     12 C                    -0.301116      -0.037246
     13 H                     0.171900       0.001729
     14 C                    -0.004366       0.322803
     15 H                     0.250753      -0.016477
     16 S                     0.105617      -0.057168
  --------------------------------------------------------
  Sum of atomic charges =     1.000000

                    Cartesian Multipole Moments
 -----------------------------------------------------------------
    Charge (ESU x 10^10)
                 4.8032
    Dipole Moment (Debye)
         X      -3.2891      Y       0.2117      Z     -10.1445
       Tot      10.6665
    Quadrupole Moments (Debye-Ang)
        XX     -30.4764     XY       2.2149     YY     -68.1436
        XZ      22.7546     YZ      -5.2706     ZZ     -30.8061

 Total job time:  92.67s(wall), 92.86s(cpu)
        *  Thank you very much for using Q-Chem.  Have a nice day.  *
