 Q-Chem 4.4, Q-Chem, Inc., Pleasanton, CA (2016)
 Q-Chem 4.4.2 for Intel X86 EM64T Linux

User input:
--------------------------------------------------------------
$molecule
 1  2
 S           0.00238887        0.06077275        0.00183269
 C           1.73707619        0.03315849        0.00323229
 H           2.27612737        0.05289032        0.94042557
 C           2.24169204       -0.01546201       -1.26965798
 H           3.30285780       -0.04005365       -1.48972496
 C           1.22479222       -0.01612968       -2.26811464
 H           1.42674790       -0.02650987       -3.33334501
 C          -0.05393771        0.02880388       -1.75170966
 C          -1.32450815        0.04889988       -2.45636342
 C          -2.02195127       -1.00044189       -3.01894087
 H          -1.67406669       -2.02656826       -2.97582407
 C          -3.24945867       -0.60670806       -3.62646369
 H          -3.93172527       -1.29663994       -4.10978649
 C          -3.48550511        0.73903708       -3.52455057
 H          -4.33511797        1.30222605       -3.88573949
 S          -2.19692440        1.55297043       -2.69593273
$end

$rem
         jobtype = opt
        exchange = b3lyp
           basis = 6-31++g**
  max_scf_cycles = 150
      mem_static = 775
       mem_total = 7750
      sym_ignore = true
        symmetry = false
          thresh = 12
$end

$opt
CONSTRAINT
tors 6 8 9 10 80.0
ENDCONSTRAINT
$end

--------------------------------------------------------------

   22   -1104.5367232635      3.19E-09 Convergence criterion met
 Total energy in the final basis set = -1104.5367232635
   16   -1104.5439809418      4.83E-09 Convergence criterion met
 Total energy in the final basis set = -1104.5439809418
   15   -1104.5473826919      6.45E-09 Convergence criterion met
 Total energy in the final basis set = -1104.5473826919
   15   -1104.5495311598      4.06E-09 Convergence criterion met
 Total energy in the final basis set = -1104.5495311598
   15   -1104.5504773499      6.04E-09 Convergence criterion met
 Total energy in the final basis set = -1104.5504773499
   13   -1104.5505500344      7.78E-09 Convergence criterion met
 Total energy in the final basis set = -1104.5505500344
   12   -1104.5505665065      7.47E-09 Convergence criterion met
 Total energy in the final basis set = -1104.5505665065
   10   -1104.5505685620      7.65E-09 Convergence criterion met
 Total energy in the final basis set = -1104.5505685620

             Standard Nuclear Orientation (Angstroms)
    I     Atom           X                Y                Z
 ----------------------------------------------------------------
    1      S      -0.0543810010     0.3709525046    -0.0724368945
    2      C       1.6600583439     0.2561762556    -0.0183261478
    3      H       2.1798026727     0.3933925548     0.9228611303
    4      C       2.2254891646    -0.0643871443    -1.2511748071
    5      H       3.2942322449    -0.1346549753    -1.4140845252
    6      C       1.2607242676    -0.2671903863    -2.2391481140
    7      H       1.4824939704    -0.4952928416    -3.2756947943
    8      C      -0.0668703199    -0.1220475616    -1.7702145216
    9      C      -1.2356202127     0.0537803523    -2.5783161650
   10      C      -1.9453433846    -0.9647080602    -3.2586056458
   11      H      -1.5238772015    -1.9508020459    -3.4189729823
   12      C      -3.2228362156    -0.5765534448    -3.6655970978
   13      H      -3.9154960889    -1.2139624491    -4.2019162707
   14      C      -3.5218108335     0.7320518715    -3.2913298840
   15      H      -4.4122991636     1.2962387551    -3.5431568293
   16      S      -2.2657790929     1.4772521352    -2.3845494807
 ----------------------------------------------------------------

    8   -1104.5505687928      7.68E-09 Convergence criterion met
 Total energy in the final basis set = -1104.5505687928
 Final energy is   -1104.55056879284
 **  OPTIMIZATION CONVERGED  **

                    Orbital Energies (a.u.)
 --------------------------------------------------------------

 Alpha MOs
 -- Occupied --
-89.097 -89.097 -10.433 -10.432 -10.417 -10.417 -10.393 -10.393
-10.378 -10.378  -8.156  -8.156  -6.120  -6.120  -6.116  -6.116
 -6.113  -6.113  -1.085  -1.060  -0.956  -0.928  -0.921  -0.881
 -0.785  -0.749  -0.734  -0.711  -0.697  -0.650  -0.594  -0.592
 -0.590  -0.579  -0.578  -0.554  -0.548  -0.532  -0.523  -0.454
 -0.440  -0.432  -0.406

 Beta MOs
 -- Occupied --
-89.097 -89.097 -10.430 -10.430 -10.413 -10.413 -10.391 -10.391
-10.378 -10.378  -8.156  -8.156  -6.121  -6.121  -6.117  -6.117
 -6.114  -6.114  -1.079  -1.054  -0.948  -0.926  -0.919  -0.871
 -0.780  -0.745  -0.729  -0.708  -0.695  -0.647  -0.590  -0.586
 -0.585  -0.576  -0.575  -0.541  -0.539  -0.532  -0.522  -0.437
 -0.433  -0.423

          Ground-State Mulliken Net Atomic Charges

     Atom                 Charge (a.u.)    Spin (a.u.)
  --------------------------------------------------------
      1 S                     0.120867      -0.055983
      2 C                    -0.003937       0.308928
      3 H                     0.251319      -0.015294
      4 C                    -0.314774      -0.028903
      5 H                     0.172457       0.001698
      6 C                     0.130514       0.126421
      7 H                     0.192487      -0.008579
      8 C                    -0.050418       0.172442
      9 C                    -0.048837       0.170732
     10 C                     0.135397       0.127041
     11 H                     0.192401      -0.008540
     12 C                    -0.318037      -0.029207
     13 H                     0.172368       0.001708
     14 C                    -0.001304       0.308853
     15 H                     0.251377      -0.015281
     16 S                     0.118121      -0.056037
  --------------------------------------------------------
  Sum of atomic charges =     1.000000

                    Cartesian Multipole Moments
 -----------------------------------------------------------------
    Charge (ESU x 10^10)
                 4.8032
    Dipole Moment (Debye)
         X      -3.3517      Y       0.2623      Z     -10.0268
       Tot      10.5754
    Quadrupole Moments (Debye-Ang)
        XX     -31.0533     XY      -2.7399     YY     -65.0044
        XZ      23.7315     YZ       3.5308     ZZ     -33.8306

 Total job time:  106.59s(wall), 105.53s(cpu)
        *  Thank you very much for using Q-Chem.  Have a nice day.  *
