 Q-Chem 4.4, Q-Chem, Inc., Pleasanton, CA (2016)
 Q-Chem 4.4.2 for Intel X86 EM64T Linux

User input:
--------------------------------------------------------------
$molecule
 1  2
 S           0.00238887        0.06077275        0.00183269
 C           1.73707619        0.03315849        0.00323229
 H           2.27612737        0.05289032        0.94042557
 C           2.24169204       -0.01546201       -1.26965798
 H           3.30285780       -0.04005365       -1.48972496
 C           1.22479222       -0.01612968       -2.26811464
 H           1.42674790       -0.02650987       -3.33334501
 C          -0.05393771        0.02880388       -1.75170966
 C          -1.32450815        0.04889988       -2.45636342
 C          -2.05472866        1.13282256       -2.89900103
 H          -1.72213594        2.15679461       -2.76984460
 C          -3.26126766        0.77165000       -3.56586141
 H          -3.95577893        1.48958389       -3.98695482
 C          -3.44713742       -0.58418270       -3.63146872
 H          -4.26391881       -1.13010283       -4.08348711
 S          -2.15318545       -1.44470960       -2.86028972
$end

$rem
         jobtype = opt
        exchange = b3lyp
           basis = 6-31++g**
  max_scf_cycles = 150
      mem_static = 775
       mem_total = 7750
      sym_ignore = true
        symmetry = false
          thresh = 12
$end

$opt
CONSTRAINT
tors 6 8 9 10 -90.0
ENDCONSTRAINT
$end

--------------------------------------------------------------

   26   -1104.5305661221      6.05E-09 Convergence criterion met
 Total energy in the final basis set = -1104.5305661221
   21   -1104.5378070428      7.35E-09 Convergence criterion met
 Total energy in the final basis set = -1104.5378070428
   20   -1104.5414358660      6.28E-09 Convergence criterion met
 Total energy in the final basis set = -1104.5414358660
   15   -1104.5439691856      5.29E-09 Convergence criterion met
 Total energy in the final basis set = -1104.5439691856
   15   -1104.5455078849      5.49E-09 Convergence criterion met
 Total energy in the final basis set = -1104.5455078849
   15   -1104.5459347750      5.99E-09 Convergence criterion met
 Total energy in the final basis set = -1104.5459347750
   12   -1104.5459677842      5.49E-09 Convergence criterion met
 Total energy in the final basis set = -1104.5459677842
   11   -1104.5459797356      6.97E-09 Convergence criterion met
 Total energy in the final basis set = -1104.5459797356

             Standard Nuclear Orientation (Angstroms)
    I     Atom           X                Y                Z
 ----------------------------------------------------------------
    1      S       0.0455839858     0.3528181219     0.0727019092
    2      C       1.7554420967     0.3615099870    -0.1209978701
    3      H       2.3940999344     0.6017045496     0.7210270445
    4      C       2.1577007498    -0.0074447298    -1.4020658130
    5      H       3.1928187401    -0.0139847599    -1.7219831524
    6      C       1.0795163461    -0.3500994906    -2.2210094660
    7      H       1.1676865569    -0.6403584972    -3.2620058537
    8      C      -0.1723269375    -0.2553496203    -1.5692541955
    9      C      -1.4617140608    -0.1494510726    -2.1924157605
   10      C      -2.1347465427     1.0412715352    -2.5535418180
   11      H      -1.8676966255     2.0047964095    -2.1339588614
   12      C      -3.1350390928     0.8442623364    -3.5079901286
   13      H      -3.7563799190     1.6342792787    -3.9124655542
   14      C      -3.2404661668    -0.4878830604    -3.8996686964
   15      H      -3.9778509892    -0.9158173212    -4.5688230829
   16      S      -2.0715444156    -1.5020276266    -3.1478812309
 ----------------------------------------------------------------

    8   -1104.5459800858      7.52E-09 Convergence criterion met
 Total energy in the final basis set = -1104.5459800858
 Final energy is   -1104.54598008577
 **  OPTIMIZATION CONVERGED  **

                    Orbital Energies (a.u.)
 --------------------------------------------------------------

 Alpha MOs
 -- Occupied --
-89.096 -89.096 -10.434 -10.434 -10.417 -10.417 -10.395 -10.395
-10.378 -10.378  -8.155  -8.155  -6.120  -6.120  -6.116  -6.116
 -6.112  -6.112  -1.085  -1.060  -0.957  -0.928  -0.922  -0.881
 -0.785  -0.750  -0.734  -0.712  -0.698  -0.651  -0.598  -0.592
 -0.587  -0.579  -0.579  -0.556  -0.548  -0.530  -0.522  -0.452
 -0.435  -0.434  -0.411

 Beta MOs
 -- Occupied --
-89.097 -89.097 -10.431 -10.431 -10.413 -10.413 -10.393 -10.393
-10.378 -10.378  -8.156  -8.156  -6.120  -6.120  -6.116  -6.116
 -6.113  -6.113  -1.079  -1.055  -0.949  -0.925  -0.920  -0.871
 -0.780  -0.745  -0.729  -0.709  -0.696  -0.648  -0.590  -0.589
 -0.582  -0.577  -0.576  -0.542  -0.541  -0.528  -0.520  -0.438
 -0.433  -0.420

          Ground-State Mulliken Net Atomic Charges

     Atom                 Charge (a.u.)    Spin (a.u.)
  --------------------------------------------------------
      1 S                     0.211206      -0.060627
      2 C                     0.041575       0.303979
      3 H                     0.251691      -0.014721
      4 C                    -0.338594      -0.029585
      5 H                     0.174395       0.002321
      6 C                     0.210308       0.121494
      7 H                     0.182496      -0.007741
      8 C                    -0.236830       0.184681
      9 C                    -0.228435       0.185041
     10 C                     0.207843       0.121463
     11 H                     0.182407      -0.007717
     12 C                    -0.337070      -0.029439
     13 H                     0.174436       0.002310
     14 C                     0.040743       0.303896
     15 H                     0.251650      -0.014714
     16 S                     0.212178      -0.060641
  --------------------------------------------------------
  Sum of atomic charges =     1.000000

                    Cartesian Multipole Moments
 -----------------------------------------------------------------
    Charge (ESU x 10^10)
                 4.8032
    Dipole Moment (Debye)
         X      -3.0826      Y       0.6173      Z     -10.5056
       Tot      10.9659
    Quadrupole Moments (Debye-Ang)
        XX     -35.1941     XY       0.0058     YY     -64.3442
        XZ      24.9859     YZ       3.0640     ZZ     -30.0831

 Total job time:  116.72s(wall), 115.49s(cpu)
        *  Thank you very much for using Q-Chem.  Have a nice day.  *
