 Q-Chem 4.4, Q-Chem, Inc., Pleasanton, CA (2016)
 Q-Chem 4.4.2 for Intel X86 EM64T Linux

User input:
--------------------------------------------------------------
$molecule
 1  2
 S           0.00238887        0.06077275        0.00183269
 C           1.73707619        0.03315849        0.00323229
 H           2.27612737        0.05289032        0.94042557
 C           2.24169204       -0.01546201       -1.26965798
 H           3.30285780       -0.04005365       -1.48972496
 C           1.22479222       -0.01612968       -2.26811464
 H           1.42674790       -0.02650987       -3.33334501
 C          -0.05393771        0.02880388       -1.75170966
 C          -1.32450815        0.04889988       -2.45636342
 C          -1.72755017        0.86087436       -3.49669654
 H          -1.08301156        1.61310294       -3.93776367
 C          -3.05130122        0.58992669       -3.94963721
 H          -3.53132316        1.12236427       -4.76276929
 C          -3.65283645       -0.42706936       -3.25608938
 H          -4.64213537       -0.84172984       -3.39329577
 S          -2.61258461       -1.06107750       -2.02100029
$end

$rem
         jobtype = opt
        exchange = b3lyp
           basis = 6-31++g**
  max_scf_cycles = 150
      mem_static = 775
       mem_total = 7750
      sym_ignore = true
        symmetry = false
          thresh = 12
$end

$opt
CONSTRAINT
tors 6 8 9 10 -50.0
ENDCONSTRAINT
$end

--------------------------------------------------------------

   18   -1104.5539613385      6.18E-09 Convergence criterion met
 Total energy in the final basis set = -1104.5539613385
   16   -1104.5604233971      3.97E-09 Convergence criterion met
 Total energy in the final basis set = -1104.5604233971
   15   -1104.5626631214      4.64E-09 Convergence criterion met
 Total energy in the final basis set = -1104.5626631214
   15   -1104.5635600130      3.01E-09 Convergence criterion met
 Total energy in the final basis set = -1104.5635600130
   13   -1104.5636856101      7.93E-09 Convergence criterion met
 Total energy in the final basis set = -1104.5636856101
   13   -1104.5637158463      3.35E-09 Convergence criterion met
 Total energy in the final basis set = -1104.5637158463
   10   -1104.5637193154      7.62E-09 Convergence criterion met
 Total energy in the final basis set = -1104.5637193154

             Standard Nuclear Orientation (Angstroms)
    I     Atom           X                Y                Z
 ----------------------------------------------------------------
    1      S      -0.0300945644    -0.1184054421     0.0191973254
    2      C       1.6878127310    -0.0767480912    -0.0077971473
    3      H       2.2406979506    -0.1276975636     0.9227699269
    4      C       2.2136115135     0.0601333599    -1.2926831744
    5      H       3.2772142308     0.0761708032    -1.4977119238
    6      C       1.2195748240     0.1579512937    -2.2649167244
    7      H       1.4094204934     0.2380059869    -3.3291333628
    8      C      -0.0920324052     0.1066665282    -1.7298416470
    9      C      -1.2893570221    -0.0352267671    -2.4733561521
   10      C      -1.6639938619     0.7349737138    -3.6030455668
   11      H      -0.9805547583     1.4201279980    -4.0914938739
   12      C      -2.9914030510     0.5435032888    -3.9828536850
   13      H      -3.4695771795     1.0422008082    -4.8173298072
   14      C      -3.6554556147    -0.3608155169    -3.1538440107
   15      H      -4.6741042930    -0.7157985027    -3.2571491949
   16      S      -2.6692650030    -0.9622802270    -1.8814882520
 ----------------------------------------------------------------

    8   -1104.5637199855      7.92E-09 Convergence criterion met
 Total energy in the final basis set = -1104.5637199855
 Final energy is   -1104.56371998546
 **  OPTIMIZATION CONVERGED  **

                    Orbital Energies (a.u.)
 --------------------------------------------------------------

 Alpha MOs
 -- Occupied --
-89.098 -89.098 -10.432 -10.431 -10.417 -10.417 -10.393 -10.393
-10.379 -10.379  -8.157  -8.157  -6.121  -6.121  -6.117  -6.117
 -6.114  -6.114  -1.086  -1.060  -0.958  -0.932  -0.921  -0.881
 -0.787  -0.754  -0.729  -0.711  -0.700  -0.649  -0.594  -0.594
 -0.590  -0.582  -0.578  -0.554  -0.549  -0.536  -0.522  -0.464
 -0.438  -0.438  -0.397

 Beta MOs
 -- Occupied --
-89.098 -89.098 -10.430 -10.429 -10.413 -10.413 -10.391 -10.391
-10.379 -10.379  -8.157  -8.157  -6.121  -6.121  -6.117  -6.117
 -6.114  -6.114  -1.080  -1.055  -0.950  -0.929  -0.919  -0.870
 -0.782  -0.750  -0.724  -0.709  -0.698  -0.646  -0.592  -0.587
 -0.583  -0.580  -0.574  -0.545  -0.539  -0.535  -0.520  -0.439
 -0.434  -0.434

          Ground-State Mulliken Net Atomic Charges

     Atom                 Charge (a.u.)    Spin (a.u.)
  --------------------------------------------------------
      1 S                     0.088893      -0.056100
      2 C                     0.008760       0.326504
      3 H                     0.250206      -0.016981
      4 C                    -0.310317      -0.040073
      5 H                     0.171956       0.001648
      6 C                     0.098425       0.154785
      7 H                     0.178448      -0.009822
      8 C                     0.011110       0.140230
      9 C                     0.013531       0.140496
     10 C                     0.100674       0.154392
     11 H                     0.178409      -0.009857
     12 C                    -0.310836      -0.040126
     13 H                     0.171970       0.001655
     14 C                     0.009126       0.326378
     15 H                     0.250213      -0.016975
     16 S                     0.089431      -0.056155
  --------------------------------------------------------
  Sum of atomic charges =     1.000000

                    Cartesian Multipole Moments
 -----------------------------------------------------------------
    Charge (ESU x 10^10)
                 4.8032
    Dipole Moment (Debye)
         X      -3.2738      Y       0.2190      Z     -10.1726
       Tot      10.6887
    Quadrupole Moments (Debye-Ang)
        XX     -30.1218     XY       2.1994     YY     -69.5067
        XZ      22.2975     YZ      -5.0091     ZZ     -29.6706

 Total job time:  93.00s(wall), 91.56s(cpu)
        *  Thank you very much for using Q-Chem.  Have a nice day.  *
