 Q-Chem 4.4, Q-Chem, Inc., Pleasanton, CA (2016)
 Q-Chem 4.4.2 for Intel X86 EM64T Linux

User input:
--------------------------------------------------------------
$molecule
 1  2
 S           0.00238887        0.06077275        0.00183269
 C           1.73707619        0.03315849        0.00323229
 H           2.27612737        0.05289032        0.94042557
 C           2.24169204       -0.01546201       -1.26965798
 H           3.30285780       -0.04005365       -1.48972496
 C           1.22479222       -0.01612968       -2.26811464
 H           1.42674790       -0.02650987       -3.33334501
 C          -0.05393771        0.02880388       -1.75170966
 C          -1.32450815        0.04889988       -2.45636342
 C          -1.93317100       -0.95762694       -3.17780069
 H          -1.49975587       -1.94548650       -3.28781381
 C          -3.19197320       -0.58070848       -3.72937501
 H          -3.81552608       -1.24405170       -4.31780701
 C          -3.54033841        0.70927600       -3.42652868
 H          -4.43590320        1.24740017       -3.70557588
 S          -2.32170939        1.49321864       -2.47263533
$end

$rem
         jobtype = opt
        exchange = b3lyp
           basis = 6-31++g**
  max_scf_cycles = 150
      mem_static = 775
       mem_total = 7750
      sym_ignore = true
        symmetry = false
          thresh = 12
$end

$opt
CONSTRAINT
tors 6 8 9 10 70.0
ENDCONSTRAINT
$end

--------------------------------------------------------------

   21   -1104.5429662395      4.00E-09 Convergence criterion met
 Total energy in the final basis set = -1104.5429662395
   16   -1104.5501878702      4.22E-09 Convergence criterion met
 Total energy in the final basis set = -1104.5501878702
   15   -1104.5533583572      6.61E-09 Convergence criterion met
 Total energy in the final basis set = -1104.5533583572
   15   -1104.5550692310      4.34E-09 Convergence criterion met
 Total energy in the final basis set = -1104.5550692310
   15   -1104.5555333337      4.48E-09 Convergence criterion met
 Total energy in the final basis set = -1104.5555333337
   13   -1104.5555713568      4.36E-09 Convergence criterion met
 Total energy in the final basis set = -1104.5555713568
   12   -1104.5555819930      5.49E-09 Convergence criterion met
 Total energy in the final basis set = -1104.5555819930

             Standard Nuclear Orientation (Angstroms)
    I     Atom           X                Y                Z
 ----------------------------------------------------------------
    1      S      -0.0429301520     0.3399918039    -0.0412586298
    2      C       1.6713987809     0.2159330955    -0.0139245405
    3      H       2.2041331598     0.3283938615     0.9231772425
    4      C       2.2193698297    -0.0742875832    -1.2625479231
    5      H       3.2855848089    -0.1492191693    -1.4392777163
    6      C       1.2421587962    -0.2384319415    -2.2445514453
    7      H       1.4500570805    -0.4362926152    -3.2900870409
    8      C      -0.0782590407    -0.0905836633    -1.7541530213
    9      C      -1.2517553734     0.0905485875    -2.5435128487
   10      C      -1.8575237446    -0.8835189316    -3.3745027570
   11      H      -1.3533453067    -1.8041616773    -3.6461880170
   12      C      -3.1531955326    -0.5473284734    -3.7678642560
   13      H      -3.7802881690    -1.1615065336    -4.4029810734
   14      C      -3.5674470653     0.6732646629    -3.2370071603
   15      H      -4.4998921731     1.1888576710    -3.4352835404
   16      S      -2.3932065186     1.3967322062    -2.2109988023
 ----------------------------------------------------------------

    9   -1104.5555825927      9.40E-09 Convergence criterion met
 Total energy in the final basis set = -1104.5555825927
 Final energy is   -1104.55558259269
 **  OPTIMIZATION CONVERGED  **

                    Orbital Energies (a.u.)
 --------------------------------------------------------------

 Alpha MOs
 -- Occupied --
-89.097 -89.097 -10.432 -10.432 -10.417 -10.417 -10.393 -10.393
-10.378 -10.378  -8.156  -8.156  -6.121  -6.121  -6.117  -6.117
 -6.113  -6.113  -1.085  -1.060  -0.957  -0.929  -0.921  -0.881
 -0.786  -0.751  -0.732  -0.711  -0.698  -0.650  -0.594  -0.593
 -0.590  -0.579  -0.579  -0.554  -0.548  -0.534  -0.523  -0.458
 -0.439  -0.434  -0.402

 Beta MOs
 -- Occupied --
-89.098 -89.098 -10.430 -10.430 -10.413 -10.413 -10.391 -10.391
-10.379 -10.379  -8.157  -8.157  -6.121  -6.121  -6.117  -6.117
 -6.114  -6.114  -1.079  -1.054  -0.949  -0.927  -0.919  -0.871
 -0.781  -0.747  -0.727  -0.708  -0.696  -0.647  -0.591  -0.586
 -0.584  -0.577  -0.575  -0.542  -0.539  -0.533  -0.521  -0.436
 -0.435  -0.428

          Ground-State Mulliken Net Atomic Charges

     Atom                 Charge (a.u.)    Spin (a.u.)
  --------------------------------------------------------
      1 S                     0.111865      -0.057352
      2 C                    -0.006479       0.317324
      3 H                     0.251186      -0.015912
      4 C                    -0.306156      -0.033252
      5 H                     0.172032       0.001740
      6 C                     0.079713       0.140863
      7 H                     0.190217      -0.009443
      8 C                     0.006633       0.156479
      9 C                     0.009730       0.155420
     10 C                     0.081351       0.141222
     11 H                     0.190123      -0.009425
     12 C                    -0.307533      -0.033453
     13 H                     0.172052       0.001746
     14 C                    -0.005536       0.317408
     15 H                     0.251089      -0.015915
     16 S                     0.109713      -0.057452
  --------------------------------------------------------
  Sum of atomic charges =     1.000000

                    Cartesian Multipole Moments
 -----------------------------------------------------------------
    Charge (ESU x 10^10)
                 4.8032
    Dipole Moment (Debye)
         X      -3.3322      Y       0.2175      Z     -10.0656
       Tot      10.6050
    Quadrupole Moments (Debye-Ang)
        XX     -30.8549     XY      -3.1550     YY     -66.1365
        XZ      23.4383     YZ       4.1152     ZZ     -32.7339

 Total job time:  98.78s(wall), 96.05s(cpu)
        *  Thank you very much for using Q-Chem.  Have a nice day.  *
