 Q-Chem 4.4, Q-Chem, Inc., Pleasanton, CA (2016)
 Q-Chem 4.4.2 for Intel X86 EM64T Linux

User input:
--------------------------------------------------------------
$molecule
 1  2
 S           0.00238887        0.06077275        0.00183269
 C           1.73707619        0.03315849        0.00323229
 H           2.27612737        0.05289032        0.94042557
 C           2.24169204       -0.01546201       -1.26965798
 H           3.30285780       -0.04005365       -1.48972496
 C           1.22479222       -0.01612968       -2.26811464
 H           1.42674790       -0.02650987       -3.33334501
 C          -0.05393771        0.02880388       -1.75170966
 C          -1.32450815        0.04889988       -2.45636342
 C          -2.56197067        0.45846879       -2.00361819
 H          -2.72130935        0.85103849       -1.00546075
 C          -3.59159078        0.34556404       -2.98240298
 H          -4.62344632        0.62810239       -2.80764354
 C          -3.13747385       -0.14735346       -4.17736923
 H          -3.69488357       -0.32643696       -5.08660230
 S          -1.43976591       -0.49948744       -4.11970909
$end

$rem
         jobtype = opt
        exchange = b3lyp
           basis = 6-31++g**
  max_scf_cycles = 150
      mem_static = 775
       mem_total = 7750
      sym_ignore = true
        symmetry = false
          thresh = 12
$end

$opt
CONSTRAINT
tors 6 8 9 10 -160.0
ENDCONSTRAINT
$end

--------------------------------------------------------------

   17   -1104.5640993190      9.57E-09 Convergence criterion met
 Total energy in the final basis set = -1104.5640993190
   15   -1104.5699156398      7.03E-09 Convergence criterion met
 Total energy in the final basis set = -1104.5699156398
   13   -1104.5708809871      6.42E-09 Convergence criterion met
 Total energy in the final basis set = -1104.5708809871
   12   -1104.5710178297      8.02E-09 Convergence criterion met
 Total energy in the final basis set = -1104.5710178297
   11   -1104.5710513067      7.84E-09 Convergence criterion met
 Total energy in the final basis set = -1104.5710513067
   10   -1104.5710615851      9.03E-09 Convergence criterion met
 Total energy in the final basis set = -1104.5710615851
    9   -1104.5710630457      7.99E-09 Convergence criterion met
 Total energy in the final basis set = -1104.5710630457

             Standard Nuclear Orientation (Angstroms)
    I     Atom           X                Y                Z
 ----------------------------------------------------------------
    1      S      -0.0197555554     0.1188964006     0.0185099430
    2      C       1.6947419524     0.1099414459    -0.0187875972
    3      H       2.2518897136     0.1783825867     0.9080558387
    4      C       2.2178188525    -0.0041490284    -1.3088696603
    5      H       3.2810637876    -0.0130742681    -1.5157226660
    6      C       1.2231358278    -0.0928839720    -2.2792166007
    7      H       1.4183466421    -0.1720517828    -3.3427068946
    8      C      -0.0864491795    -0.0480310179    -1.7411048196
    9      C      -1.3105658576    -0.0318524634    -2.4378214841
   10      C      -2.5776078507     0.3921733365    -1.9672375234
   11      H      -2.7464101876     0.7193944539    -0.9474701368
   12      C      -3.5644989791     0.3639194630    -2.9491421656
   13      H      -4.5956879193     0.6565198084    -2.7929140008
   14      C      -3.0776375752    -0.0785967755    -4.1812032748
   15      H      -3.6406917262    -0.2065651334    -5.0981633546
   16      S      -1.4048958655    -0.4557570936    -4.1524368032
 ----------------------------------------------------------------

    8   -1104.5710632797      7.26E-09 Convergence criterion met
 Total energy in the final basis set = -1104.5710632797
 Final energy is   -1104.57106327971
 **  OPTIMIZATION CONVERGED  **

                    Orbital Energies (a.u.)
 --------------------------------------------------------------

 Alpha MOs
 -- Occupied --
-89.098 -89.098 -10.432 -10.431 -10.418 -10.418 -10.392 -10.392
-10.380 -10.380  -8.157  -8.157  -6.122  -6.122  -6.118  -6.117
 -6.114  -6.114  -1.086  -1.061  -0.958  -0.934  -0.921  -0.880
 -0.789  -0.759  -0.724  -0.712  -0.701  -0.650  -0.595  -0.594
 -0.589  -0.585  -0.579  -0.555  -0.552  -0.535  -0.520  -0.471
 -0.443  -0.436  -0.392

 Beta MOs
 -- Occupied --
-89.098 -89.098 -10.430 -10.429 -10.414 -10.414 -10.390 -10.390
-10.380 -10.380  -8.157  -8.157  -6.122  -6.122  -6.118  -6.118
 -6.115  -6.115  -1.080  -1.055  -0.952  -0.931  -0.919  -0.870
 -0.784  -0.755  -0.719  -0.710  -0.700  -0.647  -0.593  -0.587
 -0.584  -0.578  -0.577  -0.550  -0.539  -0.534  -0.519  -0.443
 -0.438  -0.432

          Ground-State Mulliken Net Atomic Charges

     Atom                 Charge (a.u.)    Spin (a.u.)
  --------------------------------------------------------
      1 S                     0.009903      -0.046867
      2 C                     0.090086       0.327602
      3 H                     0.252324      -0.016664
      4 C                    -0.333163      -0.034499
      5 H                     0.174586       0.000631
      6 C                     0.409407       0.152203
      7 H                     0.157626      -0.009589
      8 C                    -0.262809       0.127152
      9 C                    -0.258682       0.127350
     10 C                     0.412471       0.152116
     11 H                     0.158021      -0.009598
     12 C                    -0.334907      -0.034481
     13 H                     0.174555       0.000631
     14 C                     0.090702       0.327558
     15 H                     0.252315      -0.016667
     16 S                     0.007565      -0.046876
  --------------------------------------------------------
  Sum of atomic charges =     1.000000

                    Cartesian Multipole Moments
 -----------------------------------------------------------------
    Charge (ESU x 10^10)
                 4.8032
    Dipole Moment (Debye)
         X      -3.2868      Y       0.3967      Z     -10.1416
       Tot      10.6683
    Quadrupole Moments (Debye-Ang)
        XX     -31.1578     XY      -2.0757     YY     -72.3691
        XZ      22.3225     YZ       1.9543     ZZ     -25.8113

 Total job time:  81.50s(wall), 81.17s(cpu)
        *  Thank you very much for using Q-Chem.  Have a nice day.  *
