 Q-Chem 4.4, Q-Chem, Inc., Pleasanton, CA (2016)
 Q-Chem 4.4.2 for Intel X86 EM64T Linux

User input:
--------------------------------------------------------------
$molecule
 1  2
 S           0.00238887        0.06077275        0.00183269
 C           1.73707619        0.03315849        0.00323229
 H           2.27612737        0.05289032        0.94042557
 C           2.24169204       -0.01546201       -1.26965798
 H           3.30285780       -0.04005365       -1.48972496
 C           1.22479222       -0.01612968       -2.26811464
 H           1.42674790       -0.02650987       -3.33334501
 C          -0.05393771        0.02880388       -1.75170966
 C          -1.32450815        0.04889988       -2.45636342
 C          -2.46305090        0.77514768       -2.17295037
 H          -2.52505239        1.46870960       -1.34171890
 C          -3.52636167        0.54824730       -3.09423814
 H          -4.49161733        1.03784562       -3.03366068
 C          -3.19630131       -0.34750061       -4.07700466
 H          -3.80292531       -0.69448392       -4.90228714
 S          -1.57909425       -0.94400887       -3.88116163
$end

$rem
         jobtype = opt
        exchange = b3lyp
           basis = 6-31++g**
  max_scf_cycles = 150
      mem_static = 775
       mem_total = 7750
      sym_ignore = true
        symmetry = false
          thresh = 12
$end

$opt
CONSTRAINT
tors 6 8 9 10 -140.0
ENDCONSTRAINT
$end

--------------------------------------------------------------

   18   -1104.5587287404      4.50E-09 Convergence criterion met
 Total energy in the final basis set = -1104.5587287404
   18   -1104.5649585975      5.83E-09 Convergence criterion met
 Total energy in the final basis set = -1104.5649585975
   14   -1104.5665988468      7.20E-09 Convergence criterion met
 Total energy in the final basis set = -1104.5665988468
   14   -1104.5671334961      6.87E-09 Convergence criterion met
 Total energy in the final basis set = -1104.5671334961
   18   -1104.5672562577      6.20E-09 Convergence criterion met
 Total energy in the final basis set = -1104.5672562577
   11   -1104.5672777413      5.11E-09 Convergence criterion met
 Total energy in the final basis set = -1104.5672777413
    9   -1104.5672798990      5.84E-09 Convergence criterion met
 Total energy in the final basis set = -1104.5672798990

             Standard Nuclear Orientation (Angstroms)
    I     Atom           X                Y                Z
 ----------------------------------------------------------------
    1      S      -0.0122405203     0.1741505868     0.0308124980
    2      C       1.7021524537     0.1996840474    -0.0377717724
    3      H       2.2743315976     0.3384782623     0.8719881282
    4      C       2.2042601001     0.0050196770    -1.3258245083
    5      H       3.2629329195     0.0167124530    -1.5550510446
    6      C       1.1947852005    -0.1860260121    -2.2670692134
    7      H       1.3691156302    -0.3280349666    -3.3275711406
    8      C      -0.1046818784    -0.1383332921    -1.7067685193
    9      C      -1.3424236163    -0.1171280641    -2.3874260142
   10      C      -2.4955316021     0.6406860866    -2.0700207467
   11      H      -2.5793928545     1.2259348798    -1.1612246311
   12      C      -3.4775254347     0.5828386415    -3.0568815499
   13      H      -4.4264233764     1.1032091588    -3.0094572991
   14      C      -3.1000677514    -0.2148385016    -4.1387084219
   15      H      -3.6914272065    -0.4477016830    -5.0164080442
   16      S      -1.5290302909    -0.8843243637    -3.9690643605
 ----------------------------------------------------------------

    8   -1104.5672803432      5.98E-09 Convergence criterion met
 Total energy in the final basis set = -1104.5672803432
 Final energy is   -1104.56728034319
 **  OPTIMIZATION CONVERGED  **

                    Orbital Energies (a.u.)
 --------------------------------------------------------------

 Alpha MOs
 -- Occupied --
-89.098 -89.098 -10.432 -10.432 -10.418 -10.418 -10.393 -10.393
-10.379 -10.379  -8.157  -8.157  -6.121  -6.121  -6.117  -6.117
 -6.114  -6.114  -1.086  -1.061  -0.958  -0.933  -0.921  -0.881
 -0.788  -0.757  -0.726  -0.712  -0.700  -0.650  -0.595  -0.594
 -0.588  -0.584  -0.579  -0.555  -0.552  -0.534  -0.521  -0.467
 -0.441  -0.436  -0.395

 Beta MOs
 -- Occupied --
-89.098 -89.098 -10.430 -10.430 -10.413 -10.413 -10.391 -10.391
-10.380 -10.380  -8.157  -8.157  -6.121  -6.121  -6.117  -6.117
 -6.114  -6.114  -1.080  -1.055  -0.951  -0.930  -0.919  -0.870
 -0.783  -0.753  -0.721  -0.709  -0.699  -0.647  -0.593  -0.587
 -0.583  -0.578  -0.577  -0.548  -0.539  -0.533  -0.520  -0.440
 -0.437  -0.433

          Ground-State Mulliken Net Atomic Charges

     Atom                 Charge (a.u.)    Spin (a.u.)
  --------------------------------------------------------
      1 S                     0.079839      -0.047801
      2 C                     0.079730       0.323231
      3 H                     0.247030      -0.016964
      4 C                    -0.359443      -0.033179
      5 H                     0.170214       0.000769
      6 C                     0.286407       0.157765
      7 H                     0.163236      -0.009271
      8 C                    -0.161056       0.125403
      9 C                    -0.173381       0.125459
     10 C                     0.289145       0.157988
     11 H                     0.163398      -0.009298
     12 C                    -0.362197      -0.033479
     13 H                     0.170035       0.000782
     14 C                     0.079917       0.323494
     15 H                     0.247016      -0.016969
     16 S                     0.080109      -0.047931
  --------------------------------------------------------
  Sum of atomic charges =     1.000000

                    Cartesian Multipole Moments
 -----------------------------------------------------------------
    Charge (ESU x 10^10)
                 4.8032
    Dipole Moment (Debye)
         X      -3.2385      Y       0.5365      Z     -10.2253
       Tot      10.7393
    Quadrupole Moments (Debye-Ang)
        XX     -32.3515     XY      -2.5554     YY     -70.1033
        XZ      23.1783     YZ       3.5767     ZZ     -26.8855

 Total job time:  90.95s(wall), 90.82s(cpu)
        *  Thank you very much for using Q-Chem.  Have a nice day.  *
