 Q-Chem 4.4, Q-Chem, Inc., Pleasanton, CA (2016)
 Q-Chem 4.4.2 for Intel X86 EM64T Linux

User input:
--------------------------------------------------------------
$molecule
 1  2
 S           0.00238887        0.06077275        0.00183269
 C           1.73707619        0.03315849        0.00323229
 H           2.27612737        0.05289032        0.94042557
 C           2.24169204       -0.01546201       -1.26965798
 H           3.30285780       -0.04005365       -1.48972496
 C           1.22479222       -0.01612968       -2.26811464
 H           1.42674790       -0.02650987       -3.33334501
 C          -0.05393771        0.02880388       -1.75170966
 C          -1.32450815        0.04889988       -2.45636342
 C          -2.43978525       -0.73906010       -2.25808460
 H          -2.49093246       -1.50067406       -1.48792474
 C          -3.51797955       -0.43012202       -3.13725412
 H          -4.47454386       -0.93983782       -3.12084756
 C          -3.22353500        0.59173113       -4.00111332
 H          -3.85346303        1.03200213       -4.76192433
 S          -1.61014049        1.18376784       -3.76449976
$end

$rem
         jobtype = opt
        exchange = b3lyp
           basis = 6-31++g**
  max_scf_cycles = 150
      mem_static = 775
       mem_total = 7750
      sym_ignore = true
        symmetry = false
          thresh = 12
$end

$opt
CONSTRAINT
tors 6 8 9 10 130.0
ENDCONSTRAINT
$end

--------------------------------------------------------------

   18   -1104.5545582974      5.28E-09 Convergence criterion met
 Total energy in the final basis set = -1104.5545582974
   18   -1104.5610032987      5.03E-09 Convergence criterion met
 Total energy in the final basis set = -1104.5610032987
   15   -1104.5632509996      4.52E-09 Convergence criterion met
 Total energy in the final basis set = -1104.5632509996
   18   -1104.5641614391      6.27E-09 Convergence criterion met
 Total energy in the final basis set = -1104.5641614391
   13   -1104.5642683387      6.99E-09 Convergence criterion met
 Total energy in the final basis set = -1104.5642683387
   11   -1104.5642966837      9.44E-09 Convergence criterion met
 Total energy in the final basis set = -1104.5642966837
    9   -1104.5642998728      6.19E-09 Convergence criterion met
 Total energy in the final basis set = -1104.5642998728

             Standard Nuclear Orientation (Angstroms)
    I     Atom           X                Y                Z
 ----------------------------------------------------------------
    1      S      -0.0096469713    -0.0593249542     0.0496271768
    2      C       1.6991704698    -0.1914631279    -0.0441626461
    3      H       2.2762075578    -0.3590701931     0.8576875010
    4      C       2.1918102626    -0.0326633734    -1.3402432845
    5      H       3.2432606974    -0.1158959283    -1.5873629860
    6      C       1.1818443522     0.2232247353    -2.2662586353
    7      H       1.3464334160     0.3495286872    -3.3302785632
    8      C      -0.1084952439     0.2634587245    -1.6854877389
    9      C      -1.3588384379     0.2724835506    -2.3497569548
   10      C      -2.4778485056    -0.5573395710    -2.0991604203
   11      H      -2.5377760842    -1.2118520043    -1.2369743927
   12      C      -3.4565916266    -0.4709143260    -3.0878830713
   13      H      -4.3807727318    -1.0360189616    -3.0864616988
   14      C      -3.1096507073     0.4188915037    -4.1055518205
   15      H      -3.7094222355     0.6946358241    -4.9649595364
   16      S      -1.5668273215     1.1364966245    -3.8778464790
 ----------------------------------------------------------------

    8   -1104.5643004998      6.56E-09 Convergence criterion met
 Total energy in the final basis set = -1104.5643004998
 Final energy is   -1104.56430049978
 **  OPTIMIZATION CONVERGED  **

                    Orbital Energies (a.u.)
 --------------------------------------------------------------

 Alpha MOs
 -- Occupied --
-89.098 -89.098 -10.432 -10.432 -10.418 -10.418 -10.393 -10.393
-10.379 -10.379  -8.157  -8.157  -6.121  -6.121  -6.117  -6.117
 -6.114  -6.114  -1.086  -1.061  -0.958  -0.932  -0.921  -0.881
 -0.787  -0.756  -0.727  -0.712  -0.700  -0.650  -0.596  -0.594
 -0.587  -0.583  -0.579  -0.556  -0.551  -0.533  -0.521  -0.464
 -0.440  -0.437  -0.397

 Beta MOs
 -- Occupied --
-89.098 -89.098 -10.430 -10.430 -10.413 -10.413 -10.391 -10.391
-10.380 -10.380  -8.157  -8.157  -6.121  -6.121  -6.117  -6.117
 -6.114  -6.114  -1.080  -1.055  -0.951  -0.929  -0.919  -0.870
 -0.783  -0.752  -0.722  -0.709  -0.698  -0.647  -0.592  -0.588
 -0.583  -0.577  -0.577  -0.547  -0.540  -0.532  -0.520  -0.438
 -0.436  -0.432

          Ground-State Mulliken Net Atomic Charges

     Atom                 Charge (a.u.)    Spin (a.u.)
  --------------------------------------------------------
      1 S                     0.116192      -0.050042
      2 C                     0.097855       0.322760
      3 H                     0.248684      -0.016619
      4 C                    -0.379725      -0.032845
      5 H                     0.170151       0.000942
      6 C                     0.216856       0.157395
      7 H                     0.165986      -0.009247
      8 C                    -0.127945       0.128014
      9 C                    -0.144239       0.127367
     10 C                     0.216308       0.157442
     11 H                     0.166012      -0.009238
     12 C                    -0.379531      -0.033005
     13 H                     0.169968       0.000953
     14 C                     0.096618       0.322708
     15 H                     0.248625      -0.016624
     16 S                     0.118184      -0.049962
  --------------------------------------------------------
  Sum of atomic charges =     1.000000

                    Cartesian Multipole Moments
 -----------------------------------------------------------------
    Charge (ESU x 10^10)
                 4.8032
    Dipole Moment (Debye)
         X      -3.2483      Y      -0.1370      Z     -10.2288
       Tot      10.7330
    Quadrupole Moments (Debye-Ang)
        XX     -32.7530     XY       1.0129     YY     -69.4083
        XZ      23.3056     YZ      -5.0604     ZZ     -27.4692

 Total job time:  91.52s(wall), 90.46s(cpu)
        *  Thank you very much for using Q-Chem.  Have a nice day.  *
