 Q-Chem 4.4, Q-Chem, Inc., Pleasanton, CA (2016)
 Q-Chem 4.4.2 for Intel X86 EM64T Linux

User input:
--------------------------------------------------------------
$molecule
 1  2
 S           0.00238887        0.06077275        0.00183269
 C           1.73707619        0.03315849        0.00323229
 H           2.27612737        0.05289032        0.94042557
 C           2.24169204       -0.01546201       -1.26965798
 H           3.30285780       -0.04005365       -1.48972496
 C           1.22479222       -0.01612968       -2.26811464
 H           1.42674790       -0.02650987       -3.33334501
 C          -0.05393771        0.02880388       -1.75170966
 C          -1.32450815        0.04889988       -2.45636342
 C          -2.28855204       -0.93510082       -2.53636606
 H          -2.19604009       -1.88988399       -2.03074889
 C          -3.42123393       -0.55954720       -3.31538848
 H          -4.27896256       -1.20140507       -3.48096238
 C          -3.31920936        0.70802156       -3.82528514
 H          -4.02940024        1.24556817       -4.43859896
 S          -1.82241436        1.45992880       -3.37387014
$end

$rem
         jobtype = opt
        exchange = b3lyp
           basis = 6-31++g**
  max_scf_cycles = 150
      mem_static = 775
       mem_total = 7750
      sym_ignore = true
        symmetry = false
          thresh = 12
$end

$opt
CONSTRAINT
tors 6 8 9 10 110.0
ENDCONSTRAINT
$end

--------------------------------------------------------------

   21   -1104.5436283808      2.62E-09 Convergence criterion met
 Total energy in the final basis set = -1104.5436283808
   18   -1104.5506317522      7.38E-09 Convergence criterion met
 Total energy in the final basis set = -1104.5506317522
   15   -1104.5538388071      5.89E-09 Convergence criterion met
 Total energy in the final basis set = -1104.5538388071
   18   -1104.5556783402      4.69E-09 Convergence criterion met
 Total energy in the final basis set = -1104.5556783402
   15   -1104.5562092437      4.83E-09 Convergence criterion met
 Total energy in the final basis set = -1104.5562092437
   11   -1104.5562559630      7.70E-09 Convergence criterion met
 Total energy in the final basis set = -1104.5562559630
   11   -1104.5562726292      5.89E-09 Convergence criterion met
 Total energy in the final basis set = -1104.5562726292

             Standard Nuclear Orientation (Angstroms)
    I     Atom           X                Y                Z
 ----------------------------------------------------------------
    1      S       0.0080083298    -0.1339507470     0.0710334734
    2      C       1.7141961723    -0.2691903112    -0.0771350025
    3      H       2.3159567884    -0.4895378378     0.7968380665
    4      C       2.1704017619    -0.0309490311    -1.3730143834
    5      H       3.2121479555    -0.1121954008    -1.6591381482
    6      C       1.1368796248     0.3004649541    -2.2496442844
    7      H       1.2698710245     0.4941385309    -3.3080681485
    8      C      -0.1347192311     0.3240341126    -1.6294883269
    9      C      -1.4090913688     0.3034366197    -2.2658813283
   10      C      -2.3492006815    -0.7538857258    -2.2672756740
   11      H      -2.2817131780    -1.5914174276    -1.5821750485
   12      C      -3.3270324863    -0.6192843609    -3.2532752932
   13      H      -4.1270207196    -1.3300040723    -3.4220492179
   14      C      -3.1539466589     0.5312763436    -4.0215692950
   15      H      -3.8027076716     0.8938434799    -4.8103865695
   16      S      -1.7646057115     1.4371724340    -3.5734159895
 ----------------------------------------------------------------

    9   -1104.5562732393      2.04E-09 Convergence criterion met
 Total energy in the final basis set = -1104.5562732393
 Final energy is   -1104.55627323930
 **  OPTIMIZATION CONVERGED  **

                    Orbital Energies (a.u.)
 --------------------------------------------------------------

 Alpha MOs
 -- Occupied --
-89.097 -89.097 -10.433 -10.433 -10.417 -10.417 -10.394 -10.394
-10.379 -10.379  -8.156  -8.156  -6.120  -6.120  -6.116  -6.116
 -6.113  -6.113  -1.085  -1.060  -0.957  -0.930  -0.921  -0.881
 -0.786  -0.753  -0.730  -0.712  -0.699  -0.650  -0.597  -0.593
 -0.587  -0.581  -0.579  -0.556  -0.550  -0.532  -0.522  -0.459
 -0.437  -0.437  -0.403

 Beta MOs
 -- Occupied --
-89.097 -89.097 -10.431 -10.430 -10.413 -10.413 -10.392 -10.392
-10.379 -10.379  -8.156  -8.156  -6.121  -6.120  -6.117  -6.116
 -6.113  -6.113  -1.079  -1.055  -0.950  -0.928  -0.919  -0.871
 -0.781  -0.749  -0.725  -0.709  -0.697  -0.647  -0.591  -0.589
 -0.582  -0.577  -0.577  -0.545  -0.540  -0.530  -0.520  -0.437
 -0.434  -0.428

          Ground-State Mulliken Net Atomic Charges

     Atom                 Charge (a.u.)    Spin (a.u.)
  --------------------------------------------------------
      1 S                     0.176204      -0.056071
      2 C                     0.086098       0.317334
      3 H                     0.251472      -0.015737
      4 C                    -0.382418      -0.030441
      5 H                     0.171323       0.001488
      6 C                     0.155982       0.144459
      7 H                     0.175519      -0.009003
      8 C                    -0.131374       0.148504
      9 C                    -0.135643       0.147152
     10 C                     0.154412       0.144665
     11 H                     0.175306      -0.008969
     12 C                    -0.383179      -0.030452
     13 H                     0.171214       0.001490
     14 C                     0.086139       0.317244
     15 H                     0.251361      -0.015750
     16 S                     0.177585      -0.055912
  --------------------------------------------------------
  Sum of atomic charges =     1.000000

                    Cartesian Multipole Moments
 -----------------------------------------------------------------
    Charge (ESU x 10^10)
                 4.8032
    Dipole Moment (Debye)
         X      -3.1891      Y      -0.2180      Z     -10.3404
       Tot      10.8232
    Quadrupole Moments (Debye-Ang)
        XX     -34.1663     XY       0.4433     YY     -66.7286
        XZ      24.1625     YZ      -5.2563     ZZ     -28.9245

 Total job time:  98.55s(wall), 96.55s(cpu)
        *  Thank you very much for using Q-Chem.  Have a nice day.  *
