 Q-Chem 4.4, Q-Chem, Inc., Pleasanton, CA (2016)
 Q-Chem 4.4.2 for Intel X86 EM64T Linux

User input:
--------------------------------------------------------------
$molecule
 1  2
 S           0.00238887        0.06077275        0.00183269
 C           1.73707619        0.03315849        0.00323229
 H           2.27612737        0.05289032        0.94042557
 C           2.24169204       -0.01546201       -1.26965798
 H           3.30285780       -0.04005365       -1.48972496
 C           1.22479222       -0.01612968       -2.26811464
 H           1.42674790       -0.02650987       -3.33334501
 C          -0.05393771        0.02880388       -1.75170966
 C          -1.32450815        0.04889988       -2.45636342
 C          -1.57705346       -0.15765971       -3.79710666
 H          -0.79579543       -0.38859800       -4.51273328
 C          -2.95863404       -0.07068413       -4.13556656
 H          -3.34391574       -0.21295066       -5.13876788
 C          -3.75498914        0.19987576       -3.05401671
 H          -4.83023938        0.31053419       -3.02126160
 S          -2.82293145        0.37079597       -1.60088560
$end

$rem
         jobtype = opt
        exchange = b3lyp
           basis = 6-31++g**
  max_scf_cycles = 150
      mem_static = 775
       mem_total = 7750
      sym_ignore = true
        symmetry = false
          thresh = 12
$end

$opt
CONSTRAINT
tors 6 8 9 10 10.0
ENDCONSTRAINT
$end

--------------------------------------------------------------

   18   -1104.5639298478      4.60E-09 Convergence criterion met
 Total energy in the final basis set = -1104.5639298478
   15   -1104.5699466682      7.66E-09 Convergence criterion met
 Total energy in the final basis set = -1104.5699466682
   14   -1104.5707892764      4.41E-09 Convergence criterion met
 Total energy in the final basis set = -1104.5707892764
   12   -1104.5708442192      8.29E-09 Convergence criterion met
 Total energy in the final basis set = -1104.5708442192
   12   -1104.5708615040      4.07E-09 Convergence criterion met
 Total energy in the final basis set = -1104.5708615040
   10   -1104.5708691228      9.36E-09 Convergence criterion met
 Total energy in the final basis set = -1104.5708691228
   10   -1104.5708720787      3.25E-09 Convergence criterion met
 Total energy in the final basis set = -1104.5708720787

             Standard Nuclear Orientation (Angstroms)
    I     Atom           X                Y                Z
 ----------------------------------------------------------------
    1      S       0.0139241029     0.1046673939     0.0666992343
    2      C       1.7269699676     0.0477706957    -0.0235952566
    3      H       2.3125589496     0.0626845599     0.8878859848
    4      C       2.2062469304    -0.0258095727    -1.3327418581
    5      H       3.2618270161    -0.0640196905    -1.5729348082
    6      C       1.1808057542    -0.0381459692    -2.2742660691
    7      H       1.3432540818    -0.0807935133    -3.3442487986
    8      C      -0.1120465467     0.0232309439    -1.6926271106
    9      C      -1.3424062403     0.0687331482    -2.3779817076
   10      C      -1.5461589290    -0.1348705152    -3.7672768835
   11      H      -0.7355497801    -0.3318313526    -4.4580067412
   12      C      -2.8856224036    -0.0672660323    -4.1406081857
   13      H      -3.2493584187    -0.1966097337    -5.1527100957
   14      C      -3.7287555364     0.1831366331    -3.0565840937
   15      H      -4.8067311286     0.2911437284    -3.0770579950
   16      S      -2.8892799293     0.3356628065    -1.5677090255
 ----------------------------------------------------------------

    9   -1104.5708725587      9.54E-09 Convergence criterion met
 Total energy in the final basis set = -1104.5708725587
 Final energy is   -1104.57087255872
 **  OPTIMIZATION CONVERGED  **

                    Orbital Energies (a.u.)
 --------------------------------------------------------------

 Alpha MOs
 -- Occupied --
-89.098 -89.098 -10.432 -10.432 -10.418 -10.418 -10.393 -10.393
-10.379 -10.379  -8.157  -8.157  -6.122  -6.122  -6.118  -6.118
 -6.114  -6.114  -1.086  -1.061  -0.959  -0.934  -0.921  -0.880
 -0.789  -0.758  -0.726  -0.711  -0.703  -0.649  -0.595  -0.593
 -0.591  -0.587  -0.577  -0.555  -0.550  -0.538  -0.520  -0.472
 -0.443  -0.436  -0.391

 Beta MOs
 -- Occupied --
-89.098 -89.098 -10.430 -10.430 -10.414 -10.414 -10.391 -10.391
-10.379 -10.379  -8.158  -8.157  -6.122  -6.122  -6.118  -6.118
 -6.115  -6.115  -1.081  -1.055  -0.952  -0.931  -0.919  -0.870
 -0.784  -0.754  -0.721  -0.708  -0.701  -0.646  -0.594  -0.588
 -0.585  -0.579  -0.574  -0.548  -0.539  -0.537  -0.518  -0.445
 -0.439  -0.431

          Ground-State Mulliken Net Atomic Charges

     Atom                 Charge (a.u.)    Spin (a.u.)
  --------------------------------------------------------
      1 S                    -0.025601      -0.056087
      2 C                     0.096721       0.337327
      3 H                     0.257200      -0.017125
      4 C                    -0.380002      -0.048794
      5 H                     0.174742       0.001400
      6 C                     0.345259       0.164962
      7 H                     0.143328      -0.010393
      8 C                    -0.112090       0.128767
      9 C                    -0.109216       0.129182
     10 C                     0.342287       0.164228
     11 H                     0.142941      -0.010376
     12 C                    -0.378786      -0.048404
     13 H                     0.174784       0.001395
     14 C                     0.096505       0.336832
     15 H                     0.257231      -0.017113
     16 S                    -0.025305      -0.055802
  --------------------------------------------------------
  Sum of atomic charges =     1.000000

                    Cartesian Multipole Moments
 -----------------------------------------------------------------
    Charge (ESU x 10^10)
                 4.8032
    Dipole Moment (Debye)
         X      -3.2517      Y       0.1702      Z     -10.2142
       Tot      10.7207
    Quadrupole Moments (Debye-Ang)
        XX     -29.0455     XY      -1.5837     YY     -73.0637
        XZ      20.9542     YZ       1.0975     ZZ     -27.0209

 Total job time:  85.22s(wall), 85.73s(cpu)
        *  Thank you very much for using Q-Chem.  Have a nice day.  *
