 Q-Chem 4.4, Q-Chem, Inc., Pleasanton, CA (2016)
 Q-Chem 4.4.2 for Intel X86 EM64T Linux

User input:
--------------------------------------------------------------
$molecule
 1  2
 S           0.00238887        0.06077275        0.00183269
 C           1.73707619        0.03315849        0.00323229
 H           2.27612737        0.05289032        0.94042557
 C           2.24169204       -0.01546201       -1.26965798
 H           3.30285780       -0.04005365       -1.48972496
 C           1.22479222       -0.01612968       -2.26811464
 H           1.42674790       -0.02650987       -3.33334501
 C          -0.05393771        0.02880388       -1.75170966
 C          -1.32450815        0.04889988       -2.45636342
 C          -1.56700304        0.21461261       -3.80461190
 H          -0.77327810        0.34092584       -4.53252931
 C          -2.95051677        0.16955731       -4.14335147
 H          -3.32753912        0.27268101       -5.15444705
 C          -3.75809803       -0.03160198       -3.05501253
 H          -4.83583766       -0.11498684       -3.02330268
 S          -2.83745639       -0.15225136       -1.58961225
$end

$rem
         jobtype = opt
        exchange = b3lyp
           basis = 6-31++g**
  max_scf_cycles = 150
      mem_static = 775
       mem_total = 7750
      sym_ignore = true
        symmetry = false
          thresh = 12
$end

$opt
CONSTRAINT
tors 6 8 9 10 -10.0
ENDCONSTRAINT
$end

--------------------------------------------------------------

   18   -1104.5638893883      5.31E-09 Convergence criterion met
 Total energy in the final basis set = -1104.5638893883
   15   -1104.5699415647      5.95E-09 Convergence criterion met
 Total energy in the final basis set = -1104.5699415647
   14   -1104.5708040503      4.07E-09 Convergence criterion met
 Total energy in the final basis set = -1104.5708040503
   12   -1104.5708641356      8.52E-09 Convergence criterion met
 Total energy in the final basis set = -1104.5708641356
   11   -1104.5708791470      7.56E-09 Convergence criterion met
 Total energy in the final basis set = -1104.5708791470
   10   -1104.5708835763      5.73E-09 Convergence criterion met
 Total energy in the final basis set = -1104.5708835763
    9   -1104.5708853349      7.54E-09 Convergence criterion met
 Total energy in the final basis set = -1104.5708853349

             Standard Nuclear Orientation (Angstroms)
    I     Atom           X                Y                Z
 ----------------------------------------------------------------
    1      S       0.0116551440     0.0381856946     0.0673423370
    2      C       1.7255642141     0.0165903853    -0.0225566343
    3      H       2.3100998793     0.0174400682     0.8897243559
    4      C       2.2071622344     0.0092541307    -1.3328596925
    5      H       3.2633042194    -0.0099276344    -1.5728501140
    6      C       1.1829232867     0.0231655740    -2.2756842590
    7      H       1.3466929388     0.0084613909    -3.3461950613
    8      C      -0.1112237894     0.0452834839    -1.6940346221
    9      C      -1.3424411657     0.0236038698    -2.3790498338
   10      C      -1.5364274162     0.1735366779    -3.7765425214
   11      H      -0.7174737989     0.3022809232    -4.4734361409
   12      C      -2.8774853508     0.1497697377    -4.1495166299
   13      H      -3.2346687619     0.2493136192    -5.1673188221
   14      C      -3.7313237497    -0.0129663112    -3.0572371740
   15      H      -4.8131131380    -0.0724926277    -3.0750866619
   16      S      -2.8997373261    -0.1361922822    -1.5609908357
 ----------------------------------------------------------------

    9   -1104.5708857817      6.68E-09 Convergence criterion met
 Total energy in the final basis set = -1104.5708857817
 Final energy is   -1104.57088578167
 **  OPTIMIZATION CONVERGED  **

                    Orbital Energies (a.u.)
 --------------------------------------------------------------

 Alpha MOs
 -- Occupied --
-89.098 -89.098 -10.432 -10.432 -10.418 -10.418 -10.393 -10.393
-10.379 -10.379  -8.157  -8.157  -6.122  -6.122  -6.118  -6.118
 -6.114  -6.114  -1.086  -1.061  -0.959  -0.934  -0.921  -0.880
 -0.789  -0.758  -0.726  -0.711  -0.703  -0.649  -0.595  -0.593
 -0.591  -0.587  -0.577  -0.555  -0.550  -0.538  -0.520  -0.472
 -0.443  -0.436  -0.391

 Beta MOs
 -- Occupied --
-89.098 -89.098 -10.430 -10.430 -10.414 -10.414 -10.391 -10.391
-10.379 -10.379  -8.158  -8.157  -6.122  -6.122  -6.118  -6.118
 -6.115  -6.115  -1.081  -1.055  -0.952  -0.931  -0.919  -0.870
 -0.784  -0.754  -0.721  -0.708  -0.701  -0.646  -0.594  -0.588
 -0.585  -0.579  -0.574  -0.548  -0.539  -0.537  -0.518  -0.445
 -0.439  -0.431

          Ground-State Mulliken Net Atomic Charges

     Atom                 Charge (a.u.)    Spin (a.u.)
  --------------------------------------------------------
      1 S                    -0.025832      -0.056141
      2 C                     0.097170       0.337353
      3 H                     0.257246      -0.017122
      4 C                    -0.380338      -0.048835
      5 H                     0.174727       0.001403
      6 C                     0.345913       0.164923
      7 H                     0.143293      -0.010398
      8 C                    -0.111563       0.128882
      9 C                    -0.109304       0.129033
     10 C                     0.341283       0.164573
     11 H                     0.142819      -0.010390
     12 C                    -0.378369      -0.048577
     13 H                     0.174765       0.001404
     14 C                     0.096040       0.336939
     15 H                     0.257221      -0.017117
     16 S                    -0.025072      -0.055930
  --------------------------------------------------------
  Sum of atomic charges =     1.000000

                    Cartesian Multipole Moments
 -----------------------------------------------------------------
    Charge (ESU x 10^10)
                 4.8032
    Dipole Moment (Debye)
         X      -3.2461      Y       0.1913      Z     -10.2234
       Tot      10.7281
    Quadrupole Moments (Debye-Ang)
        XX     -29.0048     XY       0.0991     YY     -73.2486
        XZ      20.8726     YZ      -1.3762     ZZ     -26.8459

 Total job time:  85.29s(wall), 84.32s(cpu)
        *  Thank you very much for using Q-Chem.  Have a nice day.  *
