 Q-Chem 4.4, Q-Chem, Inc., Pleasanton, CA (2016)
 Q-Chem 4.4.2 for Intel X86 EM64T Linux

User input:
--------------------------------------------------------------
$molecule
 1  2
 S           0.00238887        0.06077275        0.00183269
 C           1.73707619        0.03315849        0.00323229
 H           2.27612737        0.05289032        0.94042557
 C           2.24169204       -0.01546201       -1.26965798
 H           3.30285780       -0.04005365       -1.48972496
 C           1.22479222       -0.01612968       -2.26811464
 H           1.42674790       -0.02650987       -3.33334501
 C          -0.05393771        0.02880388       -1.75170966
 C          -1.32450815        0.04889988       -2.45636342
 C          -2.11260676       -1.01100829       -2.85578010
 H          -1.85180807       -2.04436573       -2.65584381
 C          -3.30801312       -0.61184533       -3.52102991
 H          -4.05008809       -1.30705744       -3.89666203
 C          -3.42923403        0.74884447       -3.62573399
 H          -4.23167959        1.32037512       -4.07173299
 S          -2.06953965        1.56739994       -2.92521033
$end

$rem
         jobtype = opt
        exchange = b3lyp
           basis = 6-31++g**
  max_scf_cycles = 150
      mem_static = 775
       mem_total = 7750
      sym_ignore = true
        symmetry = false
          thresh = 12
$end

$opt
CONSTRAINT
tors 6 8 9 10 90.0
ENDCONSTRAINT
$end

--------------------------------------------------------------

   26   -1104.5310520784      9.75E-09 Convergence criterion met
 Total energy in the final basis set = -1104.5310520784
   21   -1104.5380467330      6.92E-09 Convergence criterion met
 Total energy in the final basis set = -1104.5380467330
   20   -1104.5415901219      8.59E-09 Convergence criterion met
 Total energy in the final basis set = -1104.5415901219
   15   -1104.5440834347      5.54E-09 Convergence criterion met
 Total energy in the final basis set = -1104.5440834347
   15   -1104.5455561303      6.05E-09 Convergence criterion met
 Total energy in the final basis set = -1104.5455561303
   15   -1104.5459153075      5.94E-09 Convergence criterion met
 Total energy in the final basis set = -1104.5459153075
   12   -1104.5459478925      5.90E-09 Convergence criterion met
 Total energy in the final basis set = -1104.5459478925
   11   -1104.5459607374      9.78E-09 Convergence criterion met
 Total energy in the final basis set = -1104.5459607374

             Standard Nuclear Orientation (Angstroms)
    I     Atom           X                Y                Z
 ----------------------------------------------------------------
    1      S       0.0372688694    -0.2085404551     0.0920893871
    2      C       1.7432666509    -0.3095479701    -0.1084493336
    3      H       2.3747022618    -0.5450957444     0.7403166437
    4      C       2.1550729465    -0.0157132126    -1.4058619235
    5      H       3.1871736693    -0.0738762981    -1.7302800728
    6      C       1.0898468526     0.3446018575    -2.2340728785
    7      H       1.1854209273     0.5861574089    -3.2868030386
    8      C      -0.1609005008     0.3397745361    -1.5733107868
    9      C      -1.4579558286     0.2724113164    -2.1858712469
   10      C      -2.1919726720    -0.8969142487    -2.4938539778
   11      H      -1.9720055877    -1.8538145878    -2.0337521357
   12      C      -3.1862877762    -0.6901674475    -3.4525098395
   13      H      -3.8492138675    -1.4640874111    -3.8205015382
   14      C      -3.2262431153     0.6276763645    -3.9006143160
   15      H      -3.9444097731     1.0635640049    -4.5853689931
   16      S      -2.0034958365     1.6122847372    -3.1965742298
 ----------------------------------------------------------------

    8   -1104.5459610319      6.73E-09 Convergence criterion met
 Total energy in the final basis set = -1104.5459610319
 Final energy is   -1104.54596103187
 **  OPTIMIZATION CONVERGED  **

                    Orbital Energies (a.u.)
 --------------------------------------------------------------

 Alpha MOs
 -- Occupied --
-89.096 -89.096 -10.434 -10.434 -10.417 -10.417 -10.395 -10.395
-10.378 -10.378  -8.155  -8.155  -6.120  -6.120  -6.116  -6.116
 -6.112  -6.112  -1.085  -1.060  -0.957  -0.928  -0.922  -0.881
 -0.785  -0.750  -0.734  -0.712  -0.698  -0.651  -0.598  -0.592
 -0.587  -0.580  -0.579  -0.556  -0.548  -0.530  -0.522  -0.453
 -0.435  -0.434  -0.411

 Beta MOs
 -- Occupied --
-89.097 -89.097 -10.431 -10.431 -10.413 -10.413 -10.393 -10.393
-10.378 -10.378  -8.156  -8.156  -6.120  -6.120  -6.116  -6.116
 -6.113  -6.113  -1.079  -1.055  -0.949  -0.925  -0.920  -0.871
 -0.780  -0.745  -0.729  -0.709  -0.696  -0.648  -0.590  -0.589
 -0.582  -0.577  -0.576  -0.542  -0.541  -0.528  -0.520  -0.438
 -0.433  -0.420

          Ground-State Mulliken Net Atomic Charges

     Atom                 Charge (a.u.)    Spin (a.u.)
  --------------------------------------------------------
      1 S                     0.210309      -0.060574
      2 C                     0.042480       0.303992
      3 H                     0.251766      -0.014725
      4 C                    -0.339440      -0.029452
      5 H                     0.174430       0.002313
      6 C                     0.210265       0.121602
      7 H                     0.182429      -0.007723
      8 C                    -0.235204       0.184120
      9 C                    -0.227061       0.185349
     10 C                     0.205714       0.121609
     11 H                     0.182415      -0.007721
     12 C                    -0.335918      -0.029523
     13 H                     0.174425       0.002315
     14 C                     0.039399       0.303803
     15 H                     0.251676      -0.014704
     16 S                     0.212315      -0.060681
  --------------------------------------------------------
  Sum of atomic charges =     1.000000

                    Cartesian Multipole Moments
 -----------------------------------------------------------------
    Charge (ESU x 10^10)
                 4.8032
    Dipole Moment (Debye)
         X      -3.1309      Y      -0.2177      Z     -10.4367
       Tot      10.8983
    Quadrupole Moments (Debye-Ang)
        XX     -35.0300     XY      -0.8755     YY     -64.7393
        XZ      24.7644     YZ      -4.3527     ZZ     -30.1636

 Total job time:  116.41s(wall), 116.03s(cpu)
        *  Thank you very much for using Q-Chem.  Have a nice day.  *
