 Q-Chem 4.4, Q-Chem, Inc., Pleasanton, CA (2016)
 Q-Chem 4.4.2 for Intel X86 EM64T Linux

User input:
--------------------------------------------------------------
$molecule
 1  2
 S           0.00238887        0.06077275        0.00183269
 C           1.73707619        0.03315849        0.00323229
 H           2.27612737        0.05289032        0.94042557
 C           2.24169204       -0.01546201       -1.26965798
 H           3.30285780       -0.04005365       -1.48972496
 C           1.22479222       -0.01612968       -2.26811464
 H           1.42674790       -0.02650987       -3.33334501
 C          -0.05393771        0.02880388       -1.75170966
 C          -1.32450815        0.04889988       -2.45636342
 C          -1.84896350       -0.88386434       -3.32753271
 H          -1.33417198       -1.80358406       -3.58233340
 C          -3.13730338       -0.53463658       -3.82663696
 H          -3.70502117       -1.15089060       -4.51440301
 C          -3.59206785        0.66046551       -3.33464667
 H          -4.53097300        1.15756333       -3.53671634
 S          -2.44010311        1.38996011       -2.26210290
$end

$rem
         jobtype = opt
        exchange = b3lyp
           basis = 6-31++g**
  max_scf_cycles = 150
      mem_static = 775
       mem_total = 7750
      sym_ignore = true
        symmetry = false
          thresh = 12
$end

$opt
CONSTRAINT
tors 6 8 9 10 60.0
ENDCONSTRAINT
$end

--------------------------------------------------------------

   19   -1104.5487552600      9.46E-09 Convergence criterion met
 Total energy in the final basis set = -1104.5487552600
   16   -1104.5557249467      3.06E-09 Convergence criterion met
 Total energy in the final basis set = -1104.5557249467
   15   -1104.5585069836      5.52E-09 Convergence criterion met
 Total energy in the final basis set = -1104.5585069836
   15   -1104.5597716807      3.86E-09 Convergence criterion met
 Total energy in the final basis set = -1104.5597716807
   14   -1104.5599668936      6.98E-09 Convergence criterion met
 Total energy in the final basis set = -1104.5599668936
   13   -1104.5599986555      4.33E-09 Convergence criterion met
 Total energy in the final basis set = -1104.5599986555
   11   -1104.5600036832      7.37E-09 Convergence criterion met
 Total energy in the final basis set = -1104.5600036832

             Standard Nuclear Orientation (Angstroms)
    I     Atom           X                Y                Z
 ----------------------------------------------------------------
    1      S      -0.0300282011     0.3055957972    -0.0114799518
    2      C       1.6840708236     0.1761348954    -0.0129128143
    3      H       2.2304103564     0.2640948890     0.9188554305
    4      C       2.2136175611    -0.0806880904    -1.2772372601
    5      H       3.2769462913    -0.1592258047    -1.4690463330
    6      C       1.2234287318    -0.2067600961    -2.2509285362
    7      H       1.4169801563    -0.3744705298    -3.3044042459
    8      C      -0.0891084944    -0.0602187538    -1.7373549790
    9      C      -1.2706143473     0.1183129223    -2.5056711353
   10      C      -1.7765411825    -0.7832992539    -3.4748447328
   11      H      -1.1951167937    -1.6195712631    -3.8462513500
   12      C      -3.0863160802    -0.5003756572    -3.8607256560
   13      H      -3.6495934169    -1.0734490864    -4.5873276790
   14      C      -3.6089890745     0.6056352253    -3.1911596418
   15      H      -4.5791925556     1.0636661857    -3.3440567498
   16      S      -2.5153212344     1.2860021005    -2.0532514754
 ----------------------------------------------------------------

    9   -1104.5600042647      8.38E-09 Convergence criterion met
 Total energy in the final basis set = -1104.5600042647
 Final energy is   -1104.56000426469
 **  OPTIMIZATION CONVERGED  **

                    Orbital Energies (a.u.)
 --------------------------------------------------------------

 Alpha MOs
 -- Occupied --
-89.098 -89.098 -10.432 -10.432 -10.417 -10.417 -10.393 -10.393
-10.378 -10.378  -8.157  -8.157  -6.121  -6.121  -6.117  -6.117
 -6.114  -6.113  -1.085  -1.060  -0.957  -0.931  -0.921  -0.881
 -0.786  -0.752  -0.730  -0.711  -0.699  -0.650  -0.594  -0.594
 -0.590  -0.581  -0.578  -0.554  -0.549  -0.535  -0.522  -0.462
 -0.438  -0.436  -0.399

 Beta MOs
 -- Occupied --
-89.098 -89.098 -10.430 -10.429 -10.413 -10.413 -10.391 -10.391
-10.379 -10.379  -8.157  -8.157  -6.121  -6.121  -6.117  -6.117
 -6.114  -6.114  -1.079  -1.054  -0.950  -0.928  -0.919  -0.870
 -0.781  -0.749  -0.725  -0.708  -0.697  -0.647  -0.591  -0.586
 -0.584  -0.579  -0.574  -0.544  -0.539  -0.534  -0.521  -0.437
 -0.435  -0.431

          Ground-State Mulliken Net Atomic Charges

     Atom                 Charge (a.u.)    Spin (a.u.)
  --------------------------------------------------------
      1 S                     0.103742      -0.057251
      2 C                    -0.003864       0.323311
      3 H                     0.250800      -0.016496
      4 C                    -0.300479      -0.037346
      5 H                     0.171946       0.001720
      6 C                     0.058047       0.150747
      7 H                     0.185554      -0.009783
      8 C                     0.033132       0.145137
      9 C                     0.036767       0.145759
     10 C                     0.056679       0.150278
     11 H                     0.185425      -0.009772
     12 C                    -0.300621      -0.037203
     13 H                     0.171896       0.001721
     14 C                    -0.004777       0.322798
     15 H                     0.250753      -0.016477
     16 S                     0.105000      -0.057143
  --------------------------------------------------------
  Sum of atomic charges =     1.000000

                    Cartesian Multipole Moments
 -----------------------------------------------------------------
    Charge (ESU x 10^10)
                 4.8032
    Dipole Moment (Debye)
         X      -3.3139      Y       0.1851      Z     -10.0999
       Tot      10.6312
    Quadrupole Moments (Debye-Ang)
        XX     -30.5610     XY      -3.4215     YY     -67.4567
        XZ      23.0352     YZ       4.3690     ZZ     -31.5646

 Total job time:  93.62s(wall), 93.73s(cpu)
        *  Thank you very much for using Q-Chem.  Have a nice day.  *
