 Q-Chem 4.4, Q-Chem, Inc., Pleasanton, CA (2016)
 Q-Chem 4.4.2 for Intel X86 EM64T Linux

User input:
--------------------------------------------------------------
$molecule
 1  2
 S           0.00238887        0.06077275        0.00183269
 C           1.73707619        0.03315849        0.00323229
 H           2.27612737        0.05289032        0.94042557
 C           2.24169204       -0.01546201       -1.26965798
 H           3.30285780       -0.04005365       -1.48972496
 C           1.22479222       -0.01612968       -2.26811464
 H           1.42674790       -0.02650987       -3.33334501
 C          -0.05393771        0.02880388       -1.75170966
 C          -1.32450815        0.04889988       -2.45636342
 C          -1.56413539        0.02797616       -3.81510527
 H          -0.76907258       -0.02507099       -4.55055018
 C          -2.94948362        0.04896661       -4.14865348
 H          -3.32543470        0.02891802       -5.16519343
 C          -3.76145477        0.08416475       -3.04565841
 H          -4.84206678        0.09781436       -3.00600201
 S          -2.84128305        0.11001166       -1.57523288
$end

$rem
         jobtype = opt
        exchange = b3lyp
           basis = 6-31++g**
  max_scf_cycles = 150
      mem_static = 775
       mem_total = 7750
      sym_ignore = true
        symmetry = false
          thresh = 12
$end

$opt
CONSTRAINT
tors 6 8 9 10 0.0
ENDCONSTRAINT
$end

--------------------------------------------------------------

   18   -1104.5642185158      4.86E-09 Convergence criterion met
 Total energy in the final basis set = -1104.5642185158
   15   -1104.5702652737      8.24E-09 Convergence criterion met
 Total energy in the final basis set = -1104.5702652737
   14   -1104.5710684256      6.95E-09 Convergence criterion met
 Total energy in the final basis set = -1104.5710684256
   11   -1104.5711023131      8.28E-09 Convergence criterion met
 Total energy in the final basis set = -1104.5711023131
   10   -1104.5711058814      9.11E-09 Convergence criterion met
 Total energy in the final basis set = -1104.5711058814

             Standard Nuclear Orientation (Angstroms)
    I     Atom           X                Y                Z
 ----------------------------------------------------------------
    1      S       0.0140134051     0.0712049468     0.0678310869
    2      C       1.7271992707     0.0314894919    -0.0234381937
    3      H       2.3126235156     0.0388336776     0.8882351975
    4      C       2.2069889280    -0.0081941077    -1.3338550306
    5      H       3.2627368675    -0.0375746879    -1.5745195141
    6      C       1.1818319234    -0.0064610132    -2.2755914918
    7      H       1.3451297983    -0.0330125431    -3.3458781598
    8      C      -0.1117194105     0.0351916103    -1.6931609105
    9      C      -1.3440713952     0.0463029026    -2.3758394641
   10      C      -1.5355084563     0.0180227932    -3.7816199345
   11      H      -0.7143380974    -0.0179674942    -4.4867469469
   12      C      -2.8769659961     0.0401067698    -4.1527524600
   13      H      -3.2324799455     0.0249920784    -5.1759164296
   14      C      -3.7338339196     0.0852834879    -3.0516493018
   15      H      -4.8170431190     0.1096680124    -3.0653213884
   16      S      -2.9042577292     0.1012647551    -1.5495978385
 ----------------------------------------------------------------

    9   -1104.5711063144      8.09E-09 Convergence criterion met
 Total energy in the final basis set = -1104.5711063144
 Final energy is   -1104.57110631443
 **  OPTIMIZATION CONVERGED  **

                    Orbital Energies (a.u.)
 --------------------------------------------------------------

 Alpha MOs
 -- Occupied --
-89.098 -89.098 -10.432 -10.432 -10.418 -10.418 -10.393 -10.393
-10.379 -10.379  -8.157  -8.157  -6.122  -6.122  -6.118  -6.118
 -6.114  -6.114  -1.086  -1.061  -0.959  -0.934  -0.921  -0.880
 -0.789  -0.758  -0.725  -0.711  -0.703  -0.649  -0.596  -0.593
 -0.591  -0.587  -0.577  -0.555  -0.550  -0.538  -0.519  -0.473
 -0.443  -0.436  -0.391

 Beta MOs
 -- Occupied --
-89.098 -89.098 -10.430 -10.430 -10.414 -10.414 -10.391 -10.391
-10.379 -10.379  -8.158  -8.158  -6.122  -6.122  -6.118  -6.118
 -6.115  -6.115  -1.081  -1.055  -0.952  -0.932  -0.919  -0.870
 -0.784  -0.754  -0.721  -0.708  -0.701  -0.646  -0.594  -0.588
 -0.585  -0.579  -0.574  -0.548  -0.539  -0.538  -0.518  -0.445
 -0.439  -0.431

          Ground-State Mulliken Net Atomic Charges

     Atom                 Charge (a.u.)    Spin (a.u.)
  --------------------------------------------------------
      1 S                    -0.039610      -0.057667
      2 C                     0.111448       0.340593
      3 H                     0.259181      -0.016945
      4 C                    -0.446394      -0.053238
      5 H                     0.172616       0.001320
      6 C                     0.378406       0.170319
      7 H                     0.141150      -0.010551
      8 C                    -0.075621       0.126213
      9 C                    -0.071956       0.126271
     10 C                     0.370536       0.170178
     11 H                     0.140585      -0.010563
     12 C                    -0.444113      -0.053128
     13 H                     0.172604       0.001322
     14 C                     0.109941       0.340349
     15 H                     0.259191      -0.016943
     16 S                    -0.037964      -0.057531
  --------------------------------------------------------
  Sum of atomic charges =     1.000000

                    Cartesian Multipole Moments
 -----------------------------------------------------------------
    Charge (ESU x 10^10)
                 4.8032
    Dipole Moment (Debye)
         X      -3.2484      Y       0.1802      Z     -10.2195
       Tot      10.7248
    Quadrupole Moments (Debye-Ang)
        XX     -28.9839     XY      -0.7525     YY     -73.3502
        XZ      20.8183     YZ      -0.1302     ZZ     -26.8045

 Total job time:  64.71s(wall), 65.99s(cpu)
        *  Thank you very much for using Q-Chem.  Have a nice day.  *
