 Q-Chem 4.4, Q-Chem, Inc., Pleasanton, CA (2016)
 Q-Chem 4.4.2 for Intel X86 EM64T Linux

User input:
--------------------------------------------------------------
$molecule
 1  2
 S           0.00238887        0.06077275        0.00183269
 C           1.73707619        0.03315849        0.00323229
 H           2.27612737        0.05289032        0.94042557
 C           2.24169204       -0.01546201       -1.26965798
 H           3.30285780       -0.04005365       -1.48972496
 C           1.22479222       -0.01612968       -2.26811464
 H           1.42674790       -0.02650987       -3.33334501
 C          -0.05393771        0.02880388       -1.75170966
 C          -1.32450815        0.04889988       -2.45636342
 C          -2.14538416        1.12225616       -2.73584027
 H          -1.89987733        2.13899715       -2.44986434
 C          -3.31982210        0.76651273       -3.46042763
 H          -4.07414174        1.47916639       -3.77383037
 C          -3.39086634       -0.57437531       -3.73265213
 H          -4.16048043       -1.11195376       -4.26948061
 S          -2.02580070       -1.43028009       -3.08956732
$end

$rem
         jobtype = opt
        exchange = b3lyp
           basis = 6-31++g**
  max_scf_cycles = 150
      mem_static = 775
       mem_total = 7750
      sym_ignore = true
        symmetry = false
          thresh = 12
$end

$opt
CONSTRAINT
tors 6 8 9 10 -100.0
ENDCONSTRAINT
$end

--------------------------------------------------------------

   22   -1104.5370415145      4.88E-09 Convergence criterion met
 Total energy in the final basis set = -1104.5370415145
   20   -1104.5442852931      7.20E-09 Convergence criterion met
 Total energy in the final basis set = -1104.5442852931
   15   -1104.5477404245      8.12E-09 Convergence criterion met
 Total energy in the final basis set = -1104.5477404245
   18   -1104.5500474210      4.74E-09 Convergence criterion met
 Total energy in the final basis set = -1104.5500474210
   15   -1104.5512037712      5.05E-09 Convergence criterion met
 Total energy in the final basis set = -1104.5512037712
   14   -1104.5513588526      5.77E-09 Convergence criterion met
 Total energy in the final basis set = -1104.5513588526
   11   -1104.5513838929      6.97E-09 Convergence criterion met
 Total energy in the final basis set = -1104.5513838929
   11   -1104.5513894581      7.62E-09 Convergence criterion met
 Total energy in the final basis set = -1104.5513894581

             Standard Nuclear Orientation (Angstroms)
    I     Atom           X                Y                Z
 ----------------------------------------------------------------
    1      S       0.0290763730     0.3186207343     0.0642267938
    2      C       1.7395455454     0.3465763740    -0.1058616609
    3      H       2.3636431182     0.5840611245     0.7477399449
    4      C       2.1646587755     0.0009279088    -1.3871471984
    5      H       3.2049952225     0.0073624255    -1.6895283900
    6      C       1.1026879009    -0.3327491604    -2.2292819815
    7      H       1.2102570322    -0.6027145692    -3.2738462270
    8      C      -0.1599817751    -0.2523946158    -1.5962294652
    9      C      -1.4399215451    -0.1712242872    -2.2284880455
   10      C      -2.2198015483     0.9915929897    -2.4303475603
   11      H      -2.0351095178     1.9126942786    -1.8889224309
   12      C      -3.2068267385     0.8317454311    -3.4042543514
   13      H      -3.8984516063     1.6090620239    -3.7062500727
   14      C      -3.1978769648    -0.4433004884    -3.9665577534
   15      H      -3.8956312618    -0.8410224481    -4.6943008826
   16      S      -1.9443992800    -1.4425443415    -3.3460385089
 ----------------------------------------------------------------

    8   -1104.5513897460      7.61E-09 Convergence criterion met
 Total energy in the final basis set = -1104.5513897460
 Final energy is   -1104.55138974598
 **  OPTIMIZATION CONVERGED  **

                    Orbital Energies (a.u.)
 --------------------------------------------------------------

 Alpha MOs
 -- Occupied --
-89.097 -89.097 -10.434 -10.433 -10.417 -10.417 -10.394 -10.394
-10.379 -10.379  -8.156  -8.156  -6.120  -6.120  -6.116  -6.116
 -6.113  -6.113  -1.085  -1.060  -0.957  -0.929  -0.922  -0.881
 -0.785  -0.752  -0.732  -0.712  -0.698  -0.651  -0.597  -0.593
 -0.587  -0.580  -0.579  -0.556  -0.549  -0.531  -0.522  -0.456
 -0.436  -0.436  -0.406

 Beta MOs
 -- Occupied --
-89.097 -89.097 -10.431 -10.431 -10.413 -10.413 -10.392 -10.392
-10.379 -10.379  -8.156  -8.156  -6.120  -6.120  -6.116  -6.116
 -6.113  -6.113  -1.079  -1.055  -0.949  -0.927  -0.920  -0.871
 -0.781  -0.747  -0.727  -0.709  -0.697  -0.648  -0.590  -0.590
 -0.582  -0.577  -0.576  -0.543  -0.541  -0.529  -0.520  -0.438
 -0.433  -0.424

          Ground-State Mulliken Net Atomic Charges

     Atom                 Charge (a.u.)    Spin (a.u.)
  --------------------------------------------------------
      1 S                     0.195711      -0.058843
      2 C                     0.065843       0.311614
      3 H                     0.251993      -0.015236
      4 C                    -0.367547      -0.029278
      5 H                     0.172560       0.001873
      6 C                     0.183751       0.133218
      7 H                     0.180027      -0.008523
      8 C                    -0.185906       0.165478
      9 C                    -0.179085       0.164636
     10 C                     0.183990       0.133226
     11 H                     0.179763      -0.008456
     12 C                    -0.369286      -0.029113
     13 H                     0.172508       0.001848
     14 C                     0.067528       0.311500
     15 H                     0.252001      -0.015246
     16 S                     0.196149      -0.058699
  --------------------------------------------------------
  Sum of atomic charges =     1.000000

                    Cartesian Multipole Moments
 -----------------------------------------------------------------
    Charge (ESU x 10^10)
                 4.8032
    Dipole Moment (Debye)
         X      -3.1092      Y       0.6420      Z     -10.4610
       Tot      10.9322
    Quadrupole Moments (Debye-Ang)
        XX     -34.9341     XY      -0.8467     YY     -65.0677
        XZ      24.7997     YZ       3.6715     ZZ     -29.5732

 Total job time:  111.54s(wall), 110.03s(cpu)
        *  Thank you very much for using Q-Chem.  Have a nice day.  *
