 Q-Chem 4.4, Q-Chem, Inc., Pleasanton, CA (2016)
 Q-Chem 4.4.2 for Intel X86 EM64T Linux

User input:
--------------------------------------------------------------
$molecule
 1  2
 S           0.00238887        0.06077275        0.00183269
 C           1.73707619        0.03315849        0.00323229
 H           2.27612737        0.05289032        0.94042557
 C           2.24169204       -0.01546201       -1.26965798
 H           3.30285780       -0.04005365       -1.48972496
 C           1.22479222       -0.01612968       -2.26811464
 H           1.42674790       -0.02650987       -3.33334501
 C          -0.05393771        0.02880388       -1.75170966
 C          -1.32450815        0.04889988       -2.45636342
 C          -1.61927000        0.56834578       -3.70028056
 H          -0.87302722        1.03610928       -4.33284446
 C          -2.98269975        0.39898504       -4.07877888
 H          -3.39262504        0.73643102       -5.02386412
 C          -3.72262077       -0.24933774       -3.12519163
 H          -4.77050983       -0.51516394       -3.15250879
 S          -2.76440370       -0.64953580       -1.73551655
$end

$rem
         jobtype = opt
        exchange = b3lyp
           basis = 6-31++g**
  max_scf_cycles = 150
      mem_static = 775
       mem_total = 7750
      sym_ignore = true
        symmetry = false
          thresh = 12
$end

$opt
CONSTRAINT
tors 6 8 9 10 -30.0
ENDCONSTRAINT
$end

--------------------------------------------------------------

   18   -1104.5609351624      5.26E-09 Convergence criterion met
 Total energy in the final basis set = -1104.5609351624
   15   -1104.5669980839      8.84E-09 Convergence criterion met
 Total energy in the final basis set = -1104.5669980839
   18   -1104.5683600417      4.71E-09 Convergence criterion met
 Total energy in the final basis set = -1104.5683600417
   14   -1104.5686753547      5.02E-09 Convergence criterion met
 Total energy in the final basis set = -1104.5686753547
   12   -1104.5687529399      9.08E-09 Convergence criterion met
 Total energy in the final basis set = -1104.5687529399
   12   -1104.5687745052      7.86E-09 Convergence criterion met
 Total energy in the final basis set = -1104.5687745052
   10   -1104.5687776438      6.80E-09 Convergence criterion met
 Total energy in the final basis set = -1104.5687776438

             Standard Nuclear Orientation (Angstroms)
    I     Atom           X                Y                Z
 ----------------------------------------------------------------
    1      S      -0.0039150366    -0.0340286439     0.0536381032
    2      C       1.7121978259    -0.0199753771    -0.0165763421
    3      H       2.2864741239    -0.0382485662     0.9020543601
    4      C       2.2084583131     0.0406777473    -1.3196844594
    5      H       3.2672592820     0.0411904108    -1.5486065492
    6      C       1.1938228379     0.0889802689    -2.2727626731
    7      H       1.3642760061     0.1123890223    -3.3425298129
    8      C      -0.1057257623     0.0701934163    -1.7049256253
    9      C      -1.3248139603    -0.0192667604    -2.4101495244
   10      C      -1.5754131630     0.4679057026    -3.7184274331
   11      H      -0.8006014289     0.9004549925    -4.3402586218
   12      C      -2.9120122280     0.3617629833    -4.0957064403
   13      H      -3.3079734322     0.6810710960    -5.0521392852
   14      C      -3.7048150630    -0.1986909641    -3.0931185752
   15      H      -4.7656963363    -0.4140699718    -3.1415897778
   16      S      -2.8234417582    -0.5881416066    -1.6716274535
 ----------------------------------------------------------------

    9   -1104.5687783715      6.01E-09 Convergence criterion met
 Total energy in the final basis set = -1104.5687783715
 Final energy is   -1104.56877837148
 **  OPTIMIZATION CONVERGED  **

                    Orbital Energies (a.u.)
 --------------------------------------------------------------

 Alpha MOs
 -- Occupied --
-89.098 -89.098 -10.432 -10.431 -10.418 -10.418 -10.393 -10.393
-10.379 -10.379  -8.157  -8.157  -6.121  -6.121  -6.118  -6.117
 -6.114  -6.114  -1.086  -1.061  -0.958  -0.933  -0.921  -0.880
 -0.788  -0.756  -0.727  -0.711  -0.702  -0.649  -0.595  -0.593
 -0.590  -0.585  -0.577  -0.555  -0.550  -0.537  -0.521  -0.469
 -0.441  -0.436  -0.393

 Beta MOs
 -- Occupied --
-89.098 -89.098 -10.430 -10.429 -10.413 -10.413 -10.391 -10.391
-10.379 -10.379  -8.157  -8.157  -6.122  -6.122  -6.118  -6.118
 -6.115  -6.115  -1.080  -1.055  -0.951  -0.931  -0.919  -0.870
 -0.783  -0.753  -0.722  -0.708  -0.700  -0.646  -0.593  -0.587
 -0.583  -0.581  -0.574  -0.547  -0.539  -0.536  -0.519  -0.443
 -0.437  -0.432

          Ground-State Mulliken Net Atomic Charges

     Atom                 Charge (a.u.)    Spin (a.u.)
  --------------------------------------------------------
      1 S                     0.036623      -0.054360
      2 C                     0.043067       0.330428
      3 H                     0.249455      -0.017595
      4 C                    -0.341030      -0.044470
      5 H                     0.172094       0.001476
      6 C                     0.263752       0.158550
      7 H                     0.160657      -0.009910
      8 C                    -0.086530       0.135906
      9 C                    -0.079957       0.136389
     10 C                     0.262404       0.158095
     11 H                     0.160598      -0.009928
     12 C                    -0.340795      -0.044300
     13 H                     0.172092       0.001476
     14 C                     0.041953       0.330088
     15 H                     0.249436      -0.017584
     16 S                     0.036182      -0.054264
  --------------------------------------------------------
  Sum of atomic charges =     1.000000

                    Cartesian Multipole Moments
 -----------------------------------------------------------------
    Charge (ESU x 10^10)
                 4.8032
    Dipole Moment (Debye)
         X      -3.2532      Y       0.2122      Z     -10.2096
       Tot      10.7174
    Quadrupole Moments (Debye-Ang)
        XX     -29.4002     XY       1.5066     YY     -71.9095
        XZ      21.4177     YZ      -3.6164     ZZ     -27.7991

 Total job time:  91.02s(wall), 91.14s(cpu)
        *  Thank you very much for using Q-Chem.  Have a nice day.  *
