 Q-Chem 4.4, Q-Chem, Inc., Pleasanton, CA (2016)
 Q-Chem 4.4.1 for Intel X86 EM64T Linux

User input:
--------------------------------------------------------------
$molecule
 1  2
 S           1.81042700       -1.22909900       -0.13996800
 C           3.10211600       -0.18861200       -0.13982200
 C           2.74845300        1.15163900       -0.14006900
 C           1.39169900        1.31613900       -0.14029100
 C           0.68906700        0.11310500       -0.14015500
 H           0.90454800        2.27578700       -0.14040700
 C          -0.68906700       -0.11310500       -0.14015500
 S          -1.48300876       -0.76562366       -1.55537080
 C          -1.62503503        0.10540875        0.86840741
 C          -2.95245994       -0.72313422       -0.78726822
 C          -2.89875242       -0.23597330        0.50931964
 H          -3.76625471       -0.14707780        1.13520674
 H           4.10439600       -0.57731800       -0.13934700
 H           3.47107900        1.94537000       -0.13983300
 H          -3.83612334       -1.05707339       -1.30037775
 H          -1.36090533        0.50446828        1.83237182
$end

$rem
         jobtype = opt
        exchange = hf
           basis = cc-pvtz
  max_scf_cycles = 100
      mem_static = 6200
       mem_total = 62000
          method = mp2
$end

$opt
CONSTRAINT
tors 4 5 7 9 -70.0
ENDCONSTRAINT
$end

--------------------------------------------------------------

   25   -1101.3295646334      4.28E-09 Convergence criterion met
 Total energy in the final basis set = -1101.3295646334
        MP2         total energy =     -1103.0867155028 au
   17   -1101.3331425252      9.41E-09 Convergence criterion met
 Total energy in the final basis set = -1101.3331425252
        MP2         total energy =     -1103.0908215071 au
   17   -1101.3352335119      6.86E-09 Convergence criterion met
 Total energy in the final basis set = -1101.3352335119
        MP2         total energy =     -1103.0918595610 au
   17   -1101.3388852942      9.92E-09 Convergence criterion met
 Total energy in the final basis set = -1101.3388852942
        MP2         total energy =     -1103.0927609308 au
   17   -1101.3425162255      8.36E-09 Convergence criterion met
 Total energy in the final basis set = -1101.3425162255
        MP2         total energy =     -1103.0933911754 au
   16   -1101.3441349800      7.79E-09 Convergence criterion met
 Total energy in the final basis set = -1101.3441349800
        MP2         total energy =     -1103.0936632358 au
   15   -1101.3448458147      6.59E-09 Convergence criterion met
 Total energy in the final basis set = -1101.3448458147
        MP2         total energy =     -1103.0937510271 au
   13   -1101.3449455823      7.69E-09 Convergence criterion met
 Total energy in the final basis set = -1101.3449455823
        MP2         total energy =     -1103.0937582050 au

             Standard Nuclear Orientation (Angstroms)
    I     Atom           X                Y                Z
 ----------------------------------------------------------------
    1      S       1.5717929774     0.4951429208     1.0498377539
    2      C       3.0118811379    -0.0019907438     0.3936147955
    3      C       2.8924996687    -0.5706106698    -0.8602917348
    4      C       1.5952718514    -0.5563652928    -1.2973571831
    5      C       0.7089480173     0.0326413505    -0.3988404076
    6      H       1.2679738120    -0.9707463134    -2.2348979162
    7      C      -0.7089480173    -0.0326413505    -0.3988404076
    8      S      -1.5717929774    -0.4951429208     1.0498377539
    9      C      -1.5952718514     0.5563652928    -1.2973571831
   10      C      -3.0118811379     0.0019907438     0.3936147955
   11      C      -2.8924996687     0.5706106698    -0.8602917348
   12      H      -3.7255895008     0.9791237353    -1.3998741697
   13      H       3.9308925256     0.1555373671     0.9293657705
   14      H       3.7255895008    -0.9791237353    -1.3998741697
   15      H      -3.9308925256    -0.1555373671     0.9293657705
   16      H      -1.2679738120     0.9707463134    -2.2348979162
 ----------------------------------------------------------------

   11   -1101.3449872213      9.27E-09 Convergence criterion met
 Total energy in the final basis set = -1101.3449872213
        MP2         total energy =     -1103.0937625557 au
 Final energy is   -1103.09376255567
 **  OPTIMIZATION CONVERGED  **

             Orbital Energies (a.u.) and Symmetries
 --------------------------------------------------------------

 Alpha MOs, Unrestricted
 -- Occupied --
-92.160 -92.160 -11.478 -11.477 -11.451 -11.451 -11.434 -11.434
  1 A     1 B     2 A     2 B     3 B     3 A     4 B     4 A
-11.402 -11.402  -9.162  -9.162  -6.843  -6.843  -6.842  -6.842
  5 A     5 B     6 B     6 A     7 B     7 A     8 A     8 B
 -6.840  -6.840  -1.394  -1.364  -1.230  -1.189  -1.184  -1.129
  9 A     9 B    10 A    10 B    11 A    12 A    11 B    12 B
 -0.997  -0.955  -0.932  -0.905  -0.888  -0.823  -0.753  -0.752
 13 A    14 A    13 B    14 B    15 A    15 B    16 B    16 A
 -0.746  -0.736  -0.728  -0.710  -0.692  -0.664  -0.648  -0.569
 17 A    17 B    18 A    19 A    18 B    20 A    19 B    20 B
 -0.538  -0.514  -0.489
 21 A    21 B    22 A

 Beta MOs, Unrestricted
 -- Occupied --
-92.161 -92.161 -11.477 -11.476 -11.439 -11.439 -11.427 -11.427
  1 A     1 B     2 A     2 B     3 B     3 A     4 B     4 A
-11.409 -11.409  -9.164  -9.164  -6.845  -6.845  -6.844  -6.844
  5 B     5 A     6 B     6 A     7 B     7 A     8 A     8 B
 -6.843  -6.843  -1.382  -1.349  -1.218  -1.184  -1.175  -1.107
  9 B     9 A    10 A    10 B    11 A    12 A    11 B    12 B
 -0.989  -0.947  -0.920  -0.900  -0.885  -0.819  -0.749  -0.740
 13 A    14 A    13 B    14 B    15 A    15 B    16 A    17 A
 -0.737  -0.724  -0.723  -0.677  -0.665  -0.663  -0.646  -0.537
 16 B    18 A    17 B    18 B    19 A    20 A    19 B    21 A
 -0.533  -0.498
 20 B    21 B

          Ground-State Mulliken Net Atomic Charges

     Atom                 Charge (a.u.)    Spin (a.u.)
  --------------------------------------------------------
      1 S                     0.255404      -0.040304
      2 C                    -0.109640      -0.052017
      3 C                    -0.160272       0.434081
      4 C                    -0.125102      -0.249719
      5 C                    -0.046204       0.405654
      6 H                     0.219443       0.021345
      7 C                    -0.046204       0.405654
      8 S                     0.255404      -0.040304
      9 C                    -0.125102      -0.249719
     10 C                    -0.109640      -0.052017
     11 C                    -0.160272       0.434081
     12 H                     0.225933      -0.033196
     13 H                     0.240439       0.014156
     14 H                     0.225933      -0.033196
     15 H                     0.240439       0.014156
     16 H                     0.219443       0.021345
  --------------------------------------------------------
  Sum of atomic charges =     1.000000

                    Cartesian Multipole Moments
 -----------------------------------------------------------------
    Charge (ESU x 10^10)
                 4.8032
    Dipole Moment (Debye)
         X       0.0000      Y      -0.0000      Z      -0.5044
       Tot       0.5044
    Quadrupole Moments (Debye-Ang)
        XX     -23.1570     XY      -3.4937     YY     -70.0248
        XZ       0.0000     YZ       0.0000     ZZ     -58.5491

 Total job time:  28401.14s(wall), 139021.35s(cpu)
        *  Thank you very much for using Q-Chem.  Have a nice day.  *
