 Q-Chem 4.4, Q-Chem, Inc., Pleasanton, CA (2016)
 Q-Chem 4.4.1 for Intel X86 EM64T Linux

User input:
--------------------------------------------------------------
$molecule
 1  2
 S           1.81042700       -1.22909900       -0.13996800
 C           3.10211600       -0.18861200       -0.13982200
 C           2.74845300        1.15163900       -0.14006900
 C           1.39169900        1.31613900       -0.14029100
 C           0.68906700        0.11310500       -0.14015500
 H           0.90454800        2.27578700       -0.14040700
 C          -0.68906700       -0.11310500       -0.14015500
 S          -1.68842365        0.48582079       -1.44458363
 C          -1.47864499       -0.78643995        0.78945201
 C          -3.04637150       -0.15099897       -0.73640855
 C          -2.80447228       -0.81035401        0.45861698
 H          -3.58110906       -1.27503637        1.03576766
 H           4.10439600       -0.57731800       -0.13934700
 H           3.47107900        1.94537000       -0.13983300
 H          -4.00448634       -0.03135934       -1.20901842
 H          -1.07459765       -1.23979739        1.67796379
$end

$rem
         jobtype = opt
        exchange = hf
           basis = cc-pvtz
  max_scf_cycles = 100
      mem_static = 6200
       mem_total = 62000
          method = mp2
$end

$opt
CONSTRAINT
tors 4 5 7 9 -120.0
ENDCONSTRAINT
$end

--------------------------------------------------------------

   24   -1101.3402911146      9.25E-09 Convergence criterion met
 Total energy in the final basis set = -1101.3402911146
        MP2         total energy =     -1103.0916691449 au
   16   -1101.3441703134      5.62E-09 Convergence criterion met
 Total energy in the final basis set = -1101.3441703134
        MP2         total energy =     -1103.0955515593 au
   16   -1101.3468972801      9.23E-09 Convergence criterion met
 Total energy in the final basis set = -1101.3468972801
        MP2         total energy =     -1103.0974830369 au
   17   -1101.3493857415      7.01E-09 Convergence criterion met
 Total energy in the final basis set = -1101.3493857415
        MP2         total energy =     -1103.0985531797 au
   16   -1101.3504682980      6.93E-09 Convergence criterion met
 Total energy in the final basis set = -1101.3504682980
        MP2         total energy =     -1103.0988377842 au
   14   -1101.3508853341      8.31E-09 Convergence criterion met
 Total energy in the final basis set = -1101.3508853341
        MP2         total energy =     -1103.0988974320 au
   12   -1101.3509462747      6.98E-09 Convergence criterion met
 Total energy in the final basis set = -1101.3509462747
        MP2         total energy =     -1103.0989043342 au
    9   -1101.3509649976      8.42E-09 Convergence criterion met
 Total energy in the final basis set = -1101.3509649976
        MP2         total energy =     -1103.0989059247 au

             Standard Nuclear Orientation (Angstroms)
    I     Atom           X                Y                Z
 ----------------------------------------------------------------
    1      S       1.8132814938    -1.1689074660    -0.4135140235
    2      C       3.0918057293    -0.2420380867     0.0894507824
    3      C       2.7316057880     1.0131191849     0.5482042122
    4      C       1.3827527270     1.2182678051     0.4513538610
    5      C       0.6932505776     0.1345288712    -0.0870490389
    6      H       0.8853860279     2.1164958797     0.7735839306
    7      C      -0.6932505776    -0.1345288712    -0.0870490389
    8      S      -1.8132814938     1.1689074660    -0.4135140235
    9      C      -1.3827527270    -1.2182678051     0.4513538610
   10      C      -3.0918057293     0.2420380867     0.0894507824
   11      C      -2.7316057880    -1.0131191849     0.5482042122
   12      H      -3.4390286328    -1.7168708904     0.9436043152
   13      H       4.0943834724    -0.6255345059     0.0255608018
   14      H       3.4390286328     1.7168708904     0.9436043152
   15      H      -4.0943834724     0.6255345059     0.0255608018
   16      H      -0.8853860279    -2.1164958797     0.7735839306
 ----------------------------------------------------------------

    8   -1101.3509722912      9.34E-09 Convergence criterion met
 Total energy in the final basis set = -1101.3509722912
        MP2         total energy =     -1103.0989065396 au
 Final energy is   -1103.09890653962
 **  OPTIMIZATION CONVERGED  **

             Orbital Energies (a.u.) and Symmetries
 --------------------------------------------------------------

 Alpha MOs, Unrestricted
 -- Occupied --
-92.159 -92.159 -11.478 -11.477 -11.452 -11.452 -11.436 -11.436
  1 A     1 B     2 A     2 B     3 B     3 A     4 B     4 A
-11.404 -11.404  -9.162  -9.162  -6.842  -6.842  -6.842  -6.842
  5 B     5 A     6 A     6 B     7 B     7 A     8 A     8 B
 -6.840  -6.840  -1.395  -1.365  -1.231  -1.196  -1.179  -1.130
  9 B     9 A    10 A    10 B    11 A    11 B    12 A    12 B
 -0.998  -0.961  -0.928  -0.906  -0.889  -0.824  -0.755  -0.748
 13 A    13 B    14 A    14 B    15 A    15 B    16 A    16 B
 -0.748  -0.738  -0.734  -0.711  -0.694  -0.663  -0.644  -0.575
 17 A    18 A    17 B    18 B    19 A    19 B    20 A    21 A
 -0.537  -0.519  -0.484
 20 B    22 A    21 B

 Beta MOs, Unrestricted
 -- Occupied --
-92.161 -92.161 -11.478 -11.477 -11.440 -11.440 -11.428 -11.428
  1 A     1 B     2 A     2 B     3 B     3 A     4 A     4 B
-11.410 -11.410  -9.163  -9.163  -6.844  -6.844  -6.843  -6.843
  5 B     5 A     6 A     6 B     7 B     7 A     8 A     8 B
 -6.843  -6.843  -1.383  -1.350  -1.220  -1.187  -1.175  -1.106
  9 A     9 B    10 A    10 B    11 A    11 B    12 A    12 B
 -0.990  -0.951  -0.916  -0.901  -0.887  -0.819  -0.745  -0.745
 13 A    13 B    14 A    14 B    15 A    15 B    16 B    16 A
 -0.740  -0.730  -0.722  -0.682  -0.666  -0.660  -0.643  -0.536
 17 A    17 B    18 A    19 A    18 B    19 B    20 A    20 B
 -0.535  -0.505
 21 A    22 A

          Ground-State Mulliken Net Atomic Charges

     Atom                 Charge (a.u.)    Spin (a.u.)
  --------------------------------------------------------
      1 S                     0.259500      -0.031877
      2 C                    -0.106574      -0.036736
      3 C                    -0.170607       0.429491
      4 C                    -0.122223      -0.238983
      5 C                    -0.038555       0.377968
      6 H                     0.212818       0.020329
      7 C                    -0.038555       0.377968
      8 S                     0.259500      -0.031877
      9 C                    -0.122223      -0.238983
     10 C                    -0.106574      -0.036736
     11 C                    -0.170607       0.429491
     12 H                     0.224623      -0.033048
     13 H                     0.241017       0.012857
     14 H                     0.224623      -0.033048
     15 H                     0.241017       0.012857
     16 H                     0.212818       0.020329
  --------------------------------------------------------
  Sum of atomic charges =     1.000000

                    Cartesian Multipole Moments
 -----------------------------------------------------------------
    Charge (ESU x 10^10)
                 4.8032
    Dipole Moment (Debye)
         X      -0.0000      Y       0.0000      Z       1.1678
       Tot       1.1678
    Quadrupole Moments (Debye-Ang)
        XX     -22.6120     XY      -0.0512     YY     -58.3336
        XZ      -0.0000     YZ      -0.0000     ZZ     -70.8598

 Total job time:  28492.95s(wall), 139316.72s(cpu)
        *  Thank you very much for using Q-Chem.  Have a nice day.  *
