 Q-Chem 4.4, Q-Chem, Inc., Pleasanton, CA (2016)
 Q-Chem 4.4.1 for Intel X86 EM64T Linux

User input:
--------------------------------------------------------------
$molecule
 1  2
 S           1.81042700       -1.22909900       -0.13996800
 C           3.10211600       -0.18861200       -0.13982200
 C           2.74845300        1.15163900       -0.14006900
 C           1.39169900        1.31613900       -0.14029100
 C           0.68906700        0.11310500       -0.14015500
 H           0.90454800        2.27578700       -0.14040700
 C          -0.68906700       -0.11310500       -0.14015500
 S          -1.44447156       -1.00040291       -1.44438896
 C          -1.65249881        0.27272571        0.78931601
 C          -2.93483800       -0.83049194       -0.73656706
 C          -2.91643756       -0.12823052        0.45835580
 H          -3.80098230        0.06449234        1.03510166
 H           4.10439600       -0.57731800       -0.13934700
 H           3.47107900        1.94537000       -0.13983300
 H          -3.80452805       -1.24956065       -1.20951357
 H          -1.41461842        0.83170331        1.67768382
$end

$rem
         jobtype = opt
        exchange = hf
           basis = cc-pvtz
  max_scf_cycles = 100
      mem_static = 6200
       mem_total = 62000
          method = mp2
$end

$opt
CONSTRAINT
tors 4 5 7 9 -60.0
ENDCONSTRAINT
$end

--------------------------------------------------------------

   23   -1101.3394404251      9.60E-09 Convergence criterion met
 Total energy in the final basis set = -1101.3394404251
        MP2         total energy =     -1103.0919058656 au
   17   -1101.3429769188      5.42E-09 Convergence criterion met
 Total energy in the final basis set = -1101.3429769188
        MP2         total energy =     -1103.0952114024 au
   16   -1101.3455288505      6.24E-09 Convergence criterion met
 Total energy in the final basis set = -1101.3455288505
        MP2         total energy =     -1103.0964556232 au
   17   -1101.3488892755      7.27E-09 Convergence criterion met
 Total energy in the final basis set = -1101.3488892755
        MP2         total energy =     -1103.0973388610 au
   16   -1101.3508065903      8.41E-09 Convergence criterion met
 Total energy in the final basis set = -1101.3508065903
        MP2         total energy =     -1103.0976807027 au
   15   -1101.3515802305      8.25E-09 Convergence criterion met
 Total energy in the final basis set = -1101.3515802305
        MP2         total energy =     -1103.0977780498 au
   13   -1101.3516671078      6.75E-09 Convergence criterion met
 Total energy in the final basis set = -1101.3516671078
        MP2         total energy =     -1103.0977904197 au
   10   -1101.3516895367      6.97E-09 Convergence criterion met
 Total energy in the final basis set = -1101.3516895367
        MP2         total energy =     -1103.0977925958 au

             Standard Nuclear Orientation (Angstroms)
    I     Atom           X                Y                Z
 ----------------------------------------------------------------
    1      S       1.5848139065     0.4300493127     1.0844992747
    2      C       3.0228349083     0.0024201071     0.3724982879
    3      C       2.8913685484    -0.4803893663    -0.9156994866
    4      C       1.5868027357    -0.4661965097    -1.3280988150
    5      C       0.7053913848     0.0382801701    -0.3728769264
    6      H       1.2508524033    -0.8235155412    -2.2857577622
    7      C      -0.7053913848    -0.0382801701    -0.3728769264
    8      S      -1.5848139065    -0.4300493127     1.0844992747
    9      C      -1.5868027357     0.4661965097    -1.3280988150
   10      C      -3.0228349083    -0.0024201071     0.3724982879
   11      C      -2.8913685484     0.4803893663    -0.9156994866
   12      H      -3.7227421874     0.8314709039    -1.4967557931
   13      H       3.9471655696     0.1357492707     0.9053459620
   14      H       3.7227421874    -0.8314709039    -1.4967557931
   15      H      -3.9471655696    -0.1357492707     0.9053459620
   16      H      -1.2508524033     0.8235155412    -2.2857577622
 ----------------------------------------------------------------

    9   -1101.3517014728      7.53E-09 Convergence criterion met
 Total energy in the final basis set = -1101.3517014728
        MP2         total energy =     -1103.0977927260 au
 Final energy is   -1103.09779272601
 **  OPTIMIZATION CONVERGED  **

             Orbital Energies (a.u.) and Symmetries
 --------------------------------------------------------------

 Alpha MOs, Unrestricted
 -- Occupied --
-92.160 -92.160 -11.477 -11.476 -11.451 -11.451 -11.435 -11.435
  1 A     1 B     2 A     2 B     3 B     3 A     4 B     4 A
-11.402 -11.402  -9.162  -9.162  -6.843  -6.843  -6.842  -6.842
  5 A     5 B     6 B     6 A     7 B     7 A     8 A     8 B
 -6.840  -6.840  -1.395  -1.364  -1.231  -1.190  -1.184  -1.129
  9 A     9 B    10 A    10 B    11 A    12 A    11 B    12 B
 -0.999  -0.957  -0.930  -0.905  -0.889  -0.823  -0.753  -0.752
 13 A    14 A    13 B    14 B    15 A    15 B    16 B    16 A
 -0.747  -0.736  -0.729  -0.710  -0.692  -0.666  -0.647  -0.573
 17 A    17 B    18 A    19 A    18 B    20 A    19 B    20 B
 -0.537  -0.518  -0.485
 21 A    21 B    22 A

 Beta MOs, Unrestricted
 -- Occupied --
-92.161 -92.161 -11.477 -11.476 -11.439 -11.439 -11.427 -11.427
  1 A     1 B     2 A     2 B     3 B     3 A     4 B     4 A
-11.409 -11.409  -9.164  -9.164  -6.845  -6.845  -6.844  -6.844
  5 B     5 A     6 B     6 A     7 B     7 A     8 B     8 A
 -6.843  -6.843  -1.382  -1.349  -1.219  -1.185  -1.174  -1.106
  9 B     9 A    10 A    10 B    11 A    12 A    11 B    12 B
 -0.990  -0.949  -0.918  -0.900  -0.886  -0.819  -0.750  -0.741
 13 A    14 A    13 B    14 B    15 A    15 B    16 A    17 A
 -0.737  -0.726  -0.722  -0.679  -0.667  -0.662  -0.645  -0.536
 16 B    18 A    17 B    18 B    19 A    20 A    19 B    21 A
 -0.535  -0.505
 20 B    21 B

          Ground-State Mulliken Net Atomic Charges

     Atom                 Charge (a.u.)    Spin (a.u.)
  --------------------------------------------------------
      1 S                     0.249780      -0.039096
      2 C                    -0.109416      -0.022501
      3 C                    -0.162620       0.406710
      4 C                    -0.125358      -0.216710
      5 C                    -0.035843       0.371256
      6 H                     0.217536       0.019919
      7 C                    -0.035843       0.371256
      8 S                     0.249780      -0.039096
      9 C                    -0.125358      -0.216710
     10 C                    -0.109416      -0.022501
     11 C                    -0.162620       0.406710
     12 H                     0.225662      -0.031932
     13 H                     0.240258       0.012353
     14 H                     0.225662      -0.031932
     15 H                     0.240258       0.012353
     16 H                     0.217536       0.019919
  --------------------------------------------------------
  Sum of atomic charges =     1.000000

                    Cartesian Multipole Moments
 -----------------------------------------------------------------
    Charge (ESU x 10^10)
                 4.8032
    Dipole Moment (Debye)
         X      -0.0000      Y       0.0000      Z      -0.6638
       Tot       0.6638
    Quadrupole Moments (Debye-Ang)
        XX     -22.9365     XY      -2.9107     YY     -70.9807
        XZ      -0.0000     YZ      -0.0000     ZZ     -57.7389

 Total job time:  28428.96s(wall), 137544.03s(cpu)
        *  Thank you very much for using Q-Chem.  Have a nice day.  *
