 Q-Chem 4.4, Q-Chem, Inc., Pleasanton, CA (2016)
 Q-Chem 4.4.1 for Intel X86 EM64T Linux

User input:
--------------------------------------------------------------
$molecule
 1  2
 S           1.81042700       -1.22909900       -0.13996800
 C           3.10211600       -0.18861200       -0.13982200
 C           2.74845300        1.15163900       -0.14006900
 C           1.39169900        1.31613900       -0.14029100
 C           0.68906700        0.11310500       -0.14015500
 H           0.90454800        2.27578700       -0.14040700
 C          -0.68906700       -0.11310500       -0.14015500
 S          -1.77775938        1.03007883        0.61273243
 C          -1.41497998       -1.17430481       -0.67670682
 C          -3.08716052        0.09749906        0.20427517
 C          -2.76343236       -1.06038060       -0.48555459
 H          -3.50048251       -1.76623566       -0.81830524
 H           4.10439600       -0.57731800       -0.13934700
 H           3.47107900        1.94537000       -0.13983300
 H          -4.07756659        0.41386582        0.47752534
 H          -0.95007947       -1.99839667       -1.18952309
$end

$rem
         jobtype = opt
        exchange = hf
           basis = cc-pvtz
  max_scf_cycles = 100
      mem_static = 6200
       mem_total = 62000
          method = mp2
$end

$opt
CONSTRAINT
tors 4 5 7 9 150.0
ENDCONSTRAINT
$end

--------------------------------------------------------------

   21   -1101.3611092790      8.85E-09 Convergence criterion met
 Total energy in the final basis set = -1101.3611092790
        MP2         total energy =     -1103.1057559627 au
   14   -1101.3624418116      6.89E-09 Convergence criterion met
 Total energy in the final basis set = -1101.3624418116
        MP2         total energy =     -1103.1070184262 au
   15   -1101.3632048406      8.90E-09 Convergence criterion met
 Total energy in the final basis set = -1101.3632048406
        MP2         total energy =     -1103.1076355251 au
   14   -1101.3634609538      6.81E-09 Convergence criterion met
 Total energy in the final basis set = -1101.3634609538
        MP2         total energy =     -1103.1077039858 au
   12   -1101.3635416171      6.74E-09 Convergence criterion met
 Total energy in the final basis set = -1101.3635416171
        MP2         total energy =     -1103.1077256625 au

             Standard Nuclear Orientation (Angstroms)
    I     Atom           X                Y                Z
 ----------------------------------------------------------------
    1      S       1.8233834794    -1.1936969838     0.2185859262
    2      C       3.1013762543    -0.1702075152    -0.0454176597
    3      C       2.7323336085     1.1439474832    -0.2831002207
    4      C       1.3758352455     1.3054089067    -0.2316150708
    5      C       0.6888097294     0.1257743525     0.0462588253
    6      H       0.8757393410     2.2423489157    -0.4050172044
    7      C      -0.6888097294    -0.1257743525     0.0462588253
    8      S      -1.8233834794     1.1936969838     0.2185859262
    9      C      -1.3758352455    -1.3054089067    -0.2316150708
   10      C      -3.1013762543     0.1702075152    -0.0454176597
   11      C      -2.7323336085    -1.1439474832    -0.2831002207
   12      H      -3.4428152095    -1.9208553558    -0.4923481348
   13      H       4.1076866330    -0.5471567677    -0.0127851641
   14      H       3.4428152095     1.9208553558    -0.4923481348
   15      H      -4.1076866330     0.5471567677    -0.0127851641
   16      H      -0.8757393410    -2.2423489157    -0.4050172044
 ----------------------------------------------------------------

    9   -1101.3635542937      7.67E-09 Convergence criterion met
 Total energy in the final basis set = -1101.3635542937
        MP2         total energy =     -1103.1077250374 au
 Final energy is   -1103.10772503739
 **  OPTIMIZATION CONVERGED  **

             Orbital Energies (a.u.) and Symmetries
 --------------------------------------------------------------

 Alpha MOs, Unrestricted
 -- Occupied --
-92.160 -92.160 -11.476 -11.475 -11.452 -11.452 -11.434 -11.434
  1 A     1 B     2 A     2 B     3 B     3 A     4 B     4 A
-11.405 -11.405  -9.162  -9.162  -6.843  -6.843  -6.842  -6.842
  5 B     5 A     6 A     6 B     7 B     7 A     8 A     8 B
 -6.840  -6.840  -1.395  -1.365  -1.232  -1.198  -1.178  -1.130
  9 B     9 A    10 A    10 B    11 A    11 B    12 A    12 B
 -1.000  -0.964  -0.924  -0.905  -0.890  -0.823  -0.753  -0.750
 13 A    13 B    14 A    14 B    15 A    15 B    16 A    16 B
 -0.748  -0.742  -0.734  -0.711  -0.695  -0.665  -0.642  -0.582
 17 A    18 A    17 B    18 B    19 A    19 B    20 A    21 A
 -0.541  -0.520  -0.477
 20 B    22 A    21 B

 Beta MOs, Unrestricted
 -- Occupied --
-92.161 -92.161 -11.476 -11.475 -11.440 -11.440 -11.427 -11.427
  1 A     1 B     2 A     2 B     3 B     3 A     4 A     4 B
-11.411 -11.411  -9.163  -9.163  -6.844  -6.844  -6.844  -6.844
  5 B     5 A     6 A     6 B     7 B     7 A     8 A     8 B
 -6.843  -6.843  -1.384  -1.350  -1.222  -1.189  -1.174  -1.106
  9 A     9 B    10 A    10 B    11 A    11 B    12 A    12 B
 -0.993  -0.955  -0.912  -0.901  -0.889  -0.819  -0.747  -0.745
 13 A    13 B    14 A    14 B    15 A    15 B    16 B    16 A
 -0.740  -0.730  -0.721  -0.688  -0.665  -0.661  -0.642  -0.538
 17 A    17 B    18 A    19 A    18 B    19 B    20 A    20 B
 -0.533  -0.516
 21 A    22 A

          Ground-State Mulliken Net Atomic Charges

     Atom                 Charge (a.u.)    Spin (a.u.)
  --------------------------------------------------------
      1 S                     0.250756      -0.018827
      2 C                    -0.112475       0.002101
      3 C                    -0.164609       0.406168
      4 C                    -0.141583      -0.210460
      5 C                    -0.001436       0.323924
      6 H                     0.202953       0.018810
      7 C                    -0.001436       0.323924
      8 S                     0.250756      -0.018827
      9 C                    -0.141583      -0.210460
     10 C                    -0.112475       0.002101
     11 C                    -0.164609       0.406168
     12 H                     0.224864      -0.032042
     13 H                     0.241531       0.010326
     14 H                     0.224864      -0.032042
     15 H                     0.241531       0.010326
     16 H                     0.202953       0.018810
  --------------------------------------------------------
  Sum of atomic charges =     1.000000

                    Cartesian Multipole Moments
 -----------------------------------------------------------------
    Charge (ESU x 10^10)
                 4.8032
    Dipole Moment (Debye)
         X      -0.0000      Y      -0.0000      Z      -0.6099
       Tot       0.6099
    Quadrupole Moments (Debye-Ang)
        XX     -22.1335     XY       1.5369     YY     -56.5384
        XZ       0.0000     YZ       0.0000     ZZ     -72.8120

 Total job time:  18614.17s(wall), 91324.26s(cpu)
        *  Thank you very much for using Q-Chem.  Have a nice day.  *
