 Q-Chem 4.4, Q-Chem, Inc., Pleasanton, CA (2016)
 Q-Chem 4.4.1 for Intel X86 EM64T Linux

User input:
--------------------------------------------------------------
$molecule
 1  2
 S           1.81042700       -1.22909900       -0.13996800
 C           3.10211600       -0.18861200       -0.13982200
 C           2.74845300        1.15163900       -0.14006900
 C           1.39169900        1.31613900       -0.14029100
 C           0.68906700        0.11310500       -0.14015500
 H           0.90454800        2.27578700       -0.14040700
 C          -0.68906700       -0.11310500       -0.14015500
 S          -1.75333279        0.88126523       -1.10841429
 C          -1.43238723       -1.06825504        0.54987832
 C          -3.07603863        0.02974144       -0.58264801
 C          -2.77467510       -0.99188671        0.30437299
 H          -3.52258893       -1.63155725        0.73290981
 H           4.10439600       -0.57731800       -0.13934700
 H           3.47107900        1.94537000       -0.13983300
 H          -4.05766623        0.29262728       -0.93329895
 H          -0.98412690       -1.79097031        1.20941279
$end

$rem
         jobtype = opt
        exchange = hf
           basis = cc-pvtz
  max_scf_cycles = 100
      mem_static = 6200
       mem_total = 62000
          method = mp2
$end

$opt
CONSTRAINT
tors 4 5 7 9 -140.0
ENDCONSTRAINT
$end

--------------------------------------------------------------

   23   -1101.3559140846      7.34E-09 Convergence criterion met
 Total energy in the final basis set = -1101.3559140846
        MP2         total energy =     -1103.1020123573 au
   15   -1101.3580557031      6.40E-09 Convergence criterion met
 Total energy in the final basis set = -1101.3580557031
        MP2         total energy =     -1103.1040263921 au
   16   -1101.3594827129      5.26E-09 Convergence criterion met
 Total energy in the final basis set = -1101.3594827129
        MP2         total energy =     -1103.1051398306 au
   15   -1101.3600930320      8.56E-09 Convergence criterion met
 Total energy in the final basis set = -1101.3600930320
        MP2         total energy =     -1103.1053321719 au
   13   -1101.3602827379      9.09E-09 Convergence criterion met
 Total energy in the final basis set = -1101.3602827379
        MP2         total energy =     -1103.1053786820 au
   11   -1101.3603403974      6.11E-09 Convergence criterion met
 Total energy in the final basis set = -1101.3603403974
        MP2         total energy =     -1103.1053847381 au

             Standard Nuclear Orientation (Angstroms)
    I     Atom           X                Y                Z
 ----------------------------------------------------------------
    1      S       1.8197504608    -1.1877958540    -0.2857481215
    2      C       3.0983950824    -0.1908573059     0.0618017600
    3      C       2.7324595190     1.1079227052     0.3746018252
    4      C       1.3781052625     1.2820122959     0.3059447465
    5      C       0.6899736953     0.1279337194    -0.0614044010
    6      H       0.8788563099     2.2083713244     0.5307979342
    7      C      -0.6899736953    -0.1279337194    -0.0614044010
    8      S      -1.8197504608     1.1877958540    -0.2857481215
    9      C      -1.3781052625    -1.2820122959     0.3059447465
   10      C      -3.0983950824     0.1908573059     0.0618017600
   11      C      -2.7324595190    -1.1079227052     0.3746018252
   12      H      -3.4424423748    -1.8646477841     0.6492233028
   13      H       4.1034902871    -0.5702612395     0.0197276365
   14      H       3.4424423748     1.8646477841     0.6492233028
   15      H      -4.1034902871     0.5702612395     0.0197276365
   16      H      -0.8788563099    -2.2083713244     0.5307979342
 ----------------------------------------------------------------

    8   -1101.3603191065      7.72E-09 Convergence criterion met
 Total energy in the final basis set = -1101.3603191065
        MP2         total energy =     -1103.1053803121 au
 Final energy is   -1103.10538031211
 **  OPTIMIZATION CONVERGED  **

             Orbital Energies (a.u.) and Symmetries
 --------------------------------------------------------------

 Alpha MOs, Unrestricted
 -- Occupied --
-92.160 -92.160 -11.477 -11.476 -11.452 -11.452 -11.434 -11.434
  1 A     1 B     2 A     2 B     3 B     3 A     4 B     4 A
-11.404 -11.404  -9.162  -9.162  -6.843  -6.843  -6.842  -6.842
  5 B     5 A     6 A     6 B     7 B     7 A     8 A     8 B
 -6.840  -6.840  -1.395  -1.365  -1.231  -1.198  -1.179  -1.130
  9 B     9 A    10 A    10 B    11 A    11 B    12 A    12 B
 -1.000  -0.963  -0.925  -0.905  -0.890  -0.823  -0.754  -0.749
 13 A    13 B    14 A    14 B    15 A    15 B    16 A    16 B
 -0.748  -0.741  -0.734  -0.711  -0.695  -0.664  -0.642  -0.580
 17 A    18 A    17 B    18 B    19 A    19 B    20 A    21 A
 -0.540  -0.520  -0.479
 20 B    22 A    21 B

 Beta MOs, Unrestricted
 -- Occupied --
-92.161 -92.161 -11.477 -11.476 -11.440 -11.440 -11.427 -11.427
  1 A     1 B     2 A     2 B     3 B     3 A     4 A     4 B
-11.411 -11.411  -9.163  -9.163  -6.844  -6.844  -6.844  -6.844
  5 B     5 A     6 A     6 B     7 B     7 A     8 A     8 B
 -6.843  -6.843  -1.383  -1.350  -1.221  -1.188  -1.174  -1.106
  9 A     9 B    10 A    10 B    11 A    11 B    12 A    12 B
 -0.992  -0.954  -0.913  -0.901  -0.889  -0.819  -0.747  -0.745
 13 A    13 B    14 A    14 B    15 A    15 B    16 B    16 A
 -0.740  -0.730  -0.721  -0.687  -0.665  -0.661  -0.642  -0.537
 17 A    17 B    18 A    19 A    18 B    19 B    20 A    20 B
 -0.534  -0.513
 21 A    22 A

          Ground-State Mulliken Net Atomic Charges

     Atom                 Charge (a.u.)    Spin (a.u.)
  --------------------------------------------------------
      1 S                     0.253415      -0.022400
      2 C                    -0.110206      -0.007152
      3 C                    -0.167337       0.411727
      4 C                    -0.135115      -0.216660
      5 C                    -0.012803       0.336647
      6 H                     0.206007       0.019163
      7 C                    -0.012803       0.336647
      8 S                     0.253415      -0.022400
      9 C                    -0.135115      -0.216660
     10 C                    -0.110206      -0.007152
     11 C                    -0.167337       0.411727
     12 H                     0.224737      -0.032289
     13 H                     0.241301       0.010965
     14 H                     0.224737      -0.032289
     15 H                     0.241301       0.010965
     16 H                     0.206007       0.019163
  --------------------------------------------------------
  Sum of atomic charges =     1.000000

                    Cartesian Multipole Moments
 -----------------------------------------------------------------
    Charge (ESU x 10^10)
                 4.8032
    Dipole Moment (Debye)
         X       0.0000      Y      -0.0000      Z       0.8068
       Tot       0.8068
    Quadrupole Moments (Debye-Ang)
        XX     -22.2757     XY       1.0837     YY     -57.0398
        XZ      -0.0000     YZ       0.0000     ZZ     -72.2709

 Total job time:  21254.69s(wall), 106056.36s(cpu)
        *  Thank you very much for using Q-Chem.  Have a nice day.  *
