 Q-Chem 4.4, Q-Chem, Inc., Pleasanton, CA (2016)
 Q-Chem 4.4.1 for Intel X86 EM64T Linux

User input:
--------------------------------------------------------------
$molecule
 1  2
 S           1.81042700       -1.22909900       -0.13996800
 C           3.10211600       -0.18861200       -0.13982200
 C           2.74845300        1.15163900       -0.14006900
 C           1.39169900        1.31613900       -0.14029100
 C           0.68906700        0.11310500       -0.14015500
 H           0.90454800        2.27578700       -0.14040700
 C          -0.68906700       -0.11310500       -0.14015500
 S          -1.37961704       -1.39551463        0.82810429
 C          -1.69871842        0.55430835       -0.83018832
 C          -2.90512639       -1.01150326        0.30233801
 C          -2.94616147        0.05285579       -0.58468299
 H          -3.85931560        0.41987491       -1.01321981
 H           4.10439600       -0.57731800       -0.13934700
 H           3.47107900        1.94537000       -0.13983300
 H          -3.75120924       -1.57439358        0.65298895
 H          -1.50501063        1.38239771       -1.48972279
$end

$rem
         jobtype = opt
        exchange = hf
           basis = cc-pvtz
  max_scf_cycles = 100
      mem_static = 6200
       mem_total = 62000
          method = mp2
$end

$opt
CONSTRAINT
tors 4 5 7 9 40.0
ENDCONSTRAINT
$end

--------------------------------------------------------------

   23   -1101.3550265142      7.97E-09 Convergence criterion met
 Total energy in the final basis set = -1101.3550265142
        MP2         total energy =     -1103.1013457728 au
   15   -1101.3573177796      6.77E-09 Convergence criterion met
 Total energy in the final basis set = -1101.3573177796
        MP2         total energy =     -1103.1030015793 au
   16   -1101.3594069852      7.04E-09 Convergence criterion met
 Total energy in the final basis set = -1101.3594069852
        MP2         total energy =     -1103.1038851264 au
   16   -1101.3608053131      5.58E-09 Convergence criterion met
 Total energy in the final basis set = -1101.3608053131
        MP2         total energy =     -1103.1041488271 au
   15   -1101.3613104231      5.28E-09 Convergence criterion met
 Total energy in the final basis set = -1101.3613104231
        MP2         total energy =     -1103.1042176011 au
   12   -1101.3614157766      8.54E-09 Convergence criterion met
 Total energy in the final basis set = -1101.3614157766
        MP2         total energy =     -1103.1042322802 au

             Standard Nuclear Orientation (Angstroms)
    I     Atom           X                Y                Z
 ----------------------------------------------------------------
    1      S       1.6131702761    -0.3021421858     1.1331121213
    2      C       3.0416327895    -0.0133762373     0.3332922650
    3      C       2.8838639413     0.3131535943    -1.0009424570
    4      C       1.5674978291     0.3071960655    -1.3701781528
    5      C       0.7008511316    -0.0321344181    -0.3297939105
    6      H       1.2149792762     0.5579859209    -2.3550039008
    7      C      -0.7008511316     0.0321344181    -0.3297939105
    8      S      -1.6131702761     0.3021421858     1.1331121213
    9      C      -1.5674978291    -0.3071960655    -1.3701781528
   10      C      -3.0416327895     0.0133762373     0.3332922650
   11      C      -2.8838639413    -0.3131535943    -1.0009424570
   12      H      -3.7085099001    -0.5511263943    -1.6454474446
   13      H       3.9766449987    -0.1065102417     0.8555261698
   14      H       3.7085099001     0.5511263943    -1.6454474446
   15      H      -3.9766449987     0.1065102417     0.8555261698
   16      H      -1.2149792762    -0.5579859209    -2.3550039008
 ----------------------------------------------------------------

   10   -1101.3613750941      9.64E-09 Convergence criterion met
 Total energy in the final basis set = -1101.3613750941
        MP2         total energy =     -1103.1042286875 au
 Final energy is   -1103.10422868745
 **  OPTIMIZATION CONVERGED  **

             Orbital Energies (a.u.) and Symmetries
 --------------------------------------------------------------

 Alpha MOs, Unrestricted
 -- Occupied --
-92.160 -92.160 -11.477 -11.475 -11.451 -11.451 -11.435 -11.435
  1 A     1 B     2 A     2 B     3 B     3 A     4 B     4 A
-11.403 -11.403  -9.163  -9.162  -6.843  -6.843  -6.843  -6.843
  5 A     5 B     6 B     6 A     7 B     7 A     8 A     8 B
 -6.840  -6.840  -1.395  -1.364  -1.232  -1.192  -1.183  -1.129
  9 A     9 B    10 A    10 B    11 A    12 A    11 B    12 B
 -1.000  -0.960  -0.926  -0.905  -0.891  -0.822  -0.753  -0.753
 13 A    14 A    13 B    14 B    15 A    15 B    16 A    16 B
 -0.749  -0.736  -0.731  -0.710  -0.692  -0.668  -0.645  -0.580
 17 A    17 B    18 A    19 A    18 B    20 A    19 B    20 B
 -0.535  -0.524  -0.479
 21 A    21 B    22 A

 Beta MOs, Unrestricted
 -- Occupied --
-92.162 -92.162 -11.477 -11.475 -11.439 -11.439 -11.427 -11.427
  1 A     1 B     2 A     2 B     3 B     3 A     4 B     4 A
-11.410 -11.410  -9.164  -9.164  -6.845  -6.845  -6.844  -6.844
  5 B     5 A     6 B     6 A     7 B     7 A     8 B     8 A
 -6.844  -6.844  -1.383  -1.349  -1.222  -1.187  -1.174  -1.105
  9 B     9 A    10 A    10 B    11 A    12 A    11 B    12 B
 -0.992  -0.952  -0.915  -0.900  -0.888  -0.818  -0.752  -0.742
 13 A    14 A    13 B    14 B    15 A    15 B    16 A    17 A
 -0.735  -0.729  -0.721  -0.683  -0.669  -0.661  -0.644  -0.538
 16 B    18 A    17 B    18 B    19 A    20 A    19 B    20 B
 -0.534  -0.514
 21 A    21 B

          Ground-State Mulliken Net Atomic Charges

     Atom                 Charge (a.u.)    Spin (a.u.)
  --------------------------------------------------------
      1 S                     0.242579      -0.034843
      2 C                    -0.109963       0.012987
      3 C                    -0.167125       0.376931
      4 C                    -0.122682      -0.181210
      5 C                    -0.020349       0.328323
      6 H                     0.211853       0.018408
      7 C                    -0.020349       0.328323
      8 S                     0.242579      -0.034843
      9 C                    -0.122682      -0.181210
     10 C                    -0.109963       0.012987
     11 C                    -0.167125       0.376931
     12 H                     0.225074      -0.030722
     13 H                     0.240613       0.010126
     14 H                     0.225074      -0.030722
     15 H                     0.240613       0.010126
     16 H                     0.211853       0.018408
  --------------------------------------------------------
  Sum of atomic charges =     1.000000

                    Cartesian Multipole Moments
 -----------------------------------------------------------------
    Charge (ESU x 10^10)
                 4.8032
    Dipole Moment (Debye)
         X      -0.0000      Y      -0.0000      Z      -0.8917
       Tot       0.8917
    Quadrupole Moments (Debye-Ang)
        XX     -22.5403     XY       1.7427     YY     -72.3729
        XZ       0.0000     YZ      -0.0000     ZZ     -56.5678

 Total job time:  22387.68s(wall), 110411.22s(cpu)
        *  Thank you very much for using Q-Chem.  Have a nice day.  *
