 Q-Chem 4.4, Q-Chem, Inc., Pleasanton, CA (2016)
 Q-Chem 4.4.1 for Intel X86 EM64T Linux

User input:
--------------------------------------------------------------
$molecule
 1  2
 S           1.81042700       -1.22909900       -0.13996800
 C           3.10211600       -0.18861200       -0.13982200
 C           2.74845300        1.15163900       -0.14006900
 C           1.39169900        1.31613900       -0.14029100
 C           0.68906700        0.11310500       -0.14015500
 H           0.90454800        2.27578700       -0.14040700
 C          -0.68906700       -0.11310500       -0.14015500
 S          -1.72326014        0.69805432       -1.29402890
 C          -1.45381861       -0.93768910        0.68215795
 C          -3.06229453       -0.05399143       -0.66754045
 C          -2.78848080       -0.90777856        0.38954228
 H          -3.54970310       -1.46637018        0.90014320
 H           4.10439600       -0.57731800       -0.13934700
 H           3.47107900        1.94537000       -0.13983300
 H          -4.03302989        0.14253586       -1.08552091
 H          -1.02604237       -1.53560964        1.46812162
$end

$rem
         jobtype = opt
        exchange = hf
           basis = cc-pvtz
  max_scf_cycles = 100
      mem_static = 6200
       mem_total = 62000
          method = mp2
$end

$opt
CONSTRAINT
tors 4 5 7 9 -130.0
ENDCONSTRAINT
$end

--------------------------------------------------------------

   24   -1101.3490066745      4.36E-09 Convergence criterion met
 Total energy in the final basis set = -1101.3490066745
        MP2         total energy =     -1103.0972959054 au
   15   -1101.3520075158      8.05E-09 Convergence criterion met
 Total energy in the final basis set = -1101.3520075158
        MP2         total energy =     -1103.1001585227 au
   16   -1101.3541539315      6.72E-09 Convergence criterion met
 Total energy in the final basis set = -1101.3541539315
        MP2         total energy =     -1103.1017543673 au
   16   -1101.3555556031      8.75E-09 Convergence criterion met
 Total energy in the final basis set = -1101.3555556031
        MP2         total energy =     -1103.1023027947 au
   14   -1101.3559429826      7.50E-09 Convergence criterion met
 Total energy in the final basis set = -1101.3559429826
        MP2         total energy =     -1103.1024034943 au
   13   -1101.3561448166      7.30E-09 Convergence criterion met
 Total energy in the final basis set = -1101.3561448166
        MP2         total energy =     -1103.1024258677 au
    8   -1101.3561274441      6.39E-09 Convergence criterion met
 Total energy in the final basis set = -1101.3561274441
        MP2         total energy =     -1103.1024236396 au

             Standard Nuclear Orientation (Angstroms)
    I     Atom           X                Y                Z
 ----------------------------------------------------------------
    1      S       1.8162919979    -1.1797299395    -0.3504232187
    2      C       3.0951615228    -0.2153412934     0.0771357090
    3      C       2.7322174114     1.0639040897     0.4631062942
    4      C       1.3804597363     1.2528822055     0.3786451915
    5      C       0.6914674356     0.1308803309    -0.0756740996
    6      H       0.8821220204     2.1664115328     0.6526130406
    7      C      -0.6914674356    -0.1308803309    -0.0756740996
    8      S      -1.8162919979     1.1797299395    -0.3504232187
    9      C      -1.3804597363    -1.2528822055     0.3786451915
   10      C      -3.0951615228     0.2153412934     0.0771357090
   11      C      -2.7322174114    -1.0639040897     0.4631062942
   12      H      -3.4411352107    -1.7960503439     0.7999835761
   13      H       4.0989580305    -0.5971793692     0.0251818775
   14      H       3.4411352107     1.7960503439     0.7999835761
   15      H      -4.0989580305     0.5971793692     0.0251818775
   16      H      -0.8821220204    -2.1664115328     0.6526130406
 ----------------------------------------------------------------

    7   -1101.3561275177      8.90E-09 Convergence criterion met
 Total energy in the final basis set = -1101.3561275177
        MP2         total energy =     -1103.1024245682 au
 Final energy is   -1103.10242456822
 **  OPTIMIZATION CONVERGED  **

             Orbital Energies (a.u.) and Symmetries
 --------------------------------------------------------------

 Alpha MOs, Unrestricted
 -- Occupied --
-92.159 -92.159 -11.478 -11.476 -11.452 -11.452 -11.435 -11.435
  1 A     1 B     2 A     2 B     3 B     3 A     4 B     4 A
-11.404 -11.404  -9.162  -9.162  -6.843  -6.843  -6.842  -6.842
  5 B     5 A     6 A     6 B     7 B     7 A     8 A     8 B
 -6.840  -6.840  -1.395  -1.365  -1.231  -1.197  -1.179  -1.130
  9 B     9 A    10 A    10 B    11 A    11 B    12 A    12 B
 -0.999  -0.962  -0.926  -0.906  -0.890  -0.823  -0.755  -0.749
 13 A    13 B    14 A    14 B    15 A    15 B    16 A    16 B
 -0.748  -0.740  -0.734  -0.711  -0.694  -0.664  -0.643  -0.578
 17 A    18 A    17 B    18 B    19 A    19 B    20 A    21 A
 -0.539  -0.520  -0.481
 20 B    22 A    21 B

 Beta MOs, Unrestricted
 -- Occupied --
-92.161 -92.161 -11.477 -11.476 -11.440 -11.440 -11.428 -11.428
  1 A     1 B     2 A     2 B     3 B     3 A     4 A     4 B
-11.411 -11.411  -9.163  -9.163  -6.844  -6.844  -6.844  -6.844
  5 B     5 A     6 A     6 B     7 B     7 A     8 A     8 B
 -6.843  -6.843  -1.383  -1.350  -1.221  -1.188  -1.174  -1.106
  9 A     9 B    10 A    10 B    11 A    11 B    12 A    12 B
 -0.991  -0.952  -0.914  -0.901  -0.888  -0.819  -0.746  -0.745
 13 A    13 B    14 A    14 B    15 A    15 B    16 B    16 A
 -0.740  -0.730  -0.722  -0.684  -0.666  -0.660  -0.642  -0.537
 17 A    17 B    18 A    19 A    18 B    19 B    20 A    20 B
 -0.534  -0.509
 21 A    22 A

          Ground-State Mulliken Net Atomic Charges

     Atom                 Charge (a.u.)    Spin (a.u.)
  --------------------------------------------------------
      1 S                     0.256256      -0.026784
      2 C                    -0.108149      -0.019904
      3 C                    -0.169443       0.419447
      4 C                    -0.128506      -0.226000
      5 C                    -0.025392       0.354408
      6 H                     0.209438       0.019656
      7 C                    -0.025392       0.354408
      8 S                     0.256256      -0.026784
      9 C                    -0.128506      -0.226000
     10 C                    -0.108149      -0.019904
     11 C                    -0.169443       0.419447
     12 H                     0.224657      -0.032620
     13 H                     0.241140       0.011797
     14 H                     0.224657      -0.032620
     15 H                     0.241140       0.011797
     16 H                     0.209438       0.019656
  --------------------------------------------------------
  Sum of atomic charges =     1.000000

                    Cartesian Multipole Moments
 -----------------------------------------------------------------
    Charge (ESU x 10^10)
                 4.8032
    Dipole Moment (Debye)
         X      -0.0000      Y      -0.0000      Z       0.9946
       Tot       0.9946
    Quadrupole Moments (Debye-Ang)
        XX     -22.4365     XY       0.5448     YY     -57.6441
        XZ      -0.0000     YZ      -0.0000     ZZ     -71.6160

 Total job time:  24574.66s(wall), 121367.92s(cpu)
        *  Thank you very much for using Q-Chem.  Have a nice day.  *
