 Q-Chem 4.4, Q-Chem, Inc., Pleasanton, CA (2016)
 Q-Chem 4.4.1 for Intel X86 EM64T Linux

User input:
--------------------------------------------------------------
$molecule
 1  2
 S           1.81042700       -1.22909900       -0.13996800
 C           3.10211600       -0.18861200       -0.13982200
 C           2.74845300        1.15163900       -0.14006900
 C           1.39169900        1.31613900       -0.14029100
 C           0.68906700        0.11310500       -0.14015500
 H           0.90454800        2.27578700       -0.14040700
 C          -0.68906700       -0.11310500       -0.14015500
 S          -1.77772785        1.02988673       -0.89337961
 C          -1.41500201       -1.17417061        0.39663238
 C          -3.08718619        0.09765547       -0.48431064
 C          -2.76347466       -1.06012287        0.20569695
 H          -3.50059039       -1.76557846        0.53914878
 H           4.10439600       -0.57731800       -0.13934700
 H           3.47107900        1.94537000       -0.13983300
 H          -4.07764680        0.41435444       -0.75697770
 H          -0.95012482       -1.99812039        0.90969802
$end

$rem
         jobtype = opt
        exchange = hf
           basis = cc-pvtz
  max_scf_cycles = 100
      mem_static = 6200
       mem_total = 62000
          method = mp2
$end

$opt
CONSTRAINT
tors 4 5 7 9 -150.0
ENDCONSTRAINT
$end

--------------------------------------------------------------

   22   -1101.3611284495      8.50E-09 Convergence criterion met
 Total energy in the final basis set = -1101.3611284495
        MP2         total energy =     -1103.1057736969 au
   14   -1101.3624440993      7.03E-09 Convergence criterion met
 Total energy in the final basis set = -1101.3624440993
        MP2         total energy =     -1103.1070193297 au
   15   -1101.3632050694      8.83E-09 Convergence criterion met
 Total energy in the final basis set = -1101.3632050694
        MP2         total energy =     -1103.1076349887 au
   14   -1101.3634609191      6.83E-09 Convergence criterion met
 Total energy in the final basis set = -1101.3634609191
        MP2         total energy =     -1103.1077039245 au
   12   -1101.3635412994      6.70E-09 Convergence criterion met
 Total energy in the final basis set = -1101.3635412994
        MP2         total energy =     -1103.1077256312 au

             Standard Nuclear Orientation (Angstroms)
    I     Atom           X                Y                Z
 ----------------------------------------------------------------
    1      S       1.8233761525    -1.1937072287    -0.2183732142
    2      C       3.1013744474    -0.1702271039     0.0456401263
    3      C       2.7323392545     1.1439308990     0.2833170049
    4      C       1.3758419280     1.3054019004     0.2318217301
    5      C       0.6888107695     0.1257712600    -0.0460519593
    6      H       0.8757502249     2.2423425398     0.4052322104
    7      C      -0.6888107695    -0.1257712600    -0.0460519593
    8      S      -1.8233761525     1.1937072287    -0.2183732142
    9      C      -1.3758419280    -1.3054019004     0.2318217301
   10      C      -3.1013744474     0.1702271039     0.0456401263
   11      C      -2.7323392545    -1.1439308990     0.2833170049
   12      H      -3.4428242375    -1.9208326359     0.4925762702
   13      H       4.1076824295    -0.5471838895     0.0130203234
   14      H       3.4428242375     1.9208326359     0.4925762702
   15      H      -4.1076824295     0.5471838895     0.0130203234
   16      H      -0.8757502249    -2.2423425398     0.4052322104
 ----------------------------------------------------------------

    9   -1101.3635542764      7.67E-09 Convergence criterion met
 Total energy in the final basis set = -1101.3635542764
        MP2         total energy =     -1103.1077250532 au
 Final energy is   -1103.10772505324
 **  OPTIMIZATION CONVERGED  **

             Orbital Energies (a.u.) and Symmetries
 --------------------------------------------------------------

 Alpha MOs, Unrestricted
 -- Occupied --
-92.160 -92.160 -11.476 -11.475 -11.452 -11.452 -11.434 -11.434
  1 A     1 B     2 A     2 B     3 B     3 A     4 B     4 A
-11.405 -11.405  -9.162  -9.162  -6.843  -6.843  -6.842  -6.842
  5 B     5 A     6 A     6 B     7 B     7 A     8 A     8 B
 -6.840  -6.840  -1.395  -1.365  -1.232  -1.198  -1.178  -1.130
  9 B     9 A    10 A    10 B    11 A    11 B    12 A    12 B
 -1.000  -0.964  -0.924  -0.905  -0.890  -0.823  -0.753  -0.750
 13 A    13 B    14 A    14 B    15 A    15 B    16 A    16 B
 -0.748  -0.742  -0.734  -0.711  -0.695  -0.665  -0.642  -0.582
 17 A    18 A    17 B    18 B    19 A    19 B    20 A    21 A
 -0.541  -0.520  -0.477
 20 B    22 A    21 B

 Beta MOs, Unrestricted
 -- Occupied --
-92.161 -92.161 -11.476 -11.475 -11.440 -11.440 -11.427 -11.427
  1 A     1 B     2 A     2 B     3 B     3 A     4 A     4 B
-11.411 -11.411  -9.163  -9.163  -6.844  -6.844  -6.844  -6.844
  5 B     5 A     6 A     6 B     7 B     7 A     8 A     8 B
 -6.843  -6.843  -1.384  -1.350  -1.222  -1.189  -1.174  -1.106
  9 A     9 B    10 A    10 B    11 A    11 B    12 A    12 B
 -0.993  -0.955  -0.912  -0.901  -0.889  -0.819  -0.747  -0.745
 13 A    13 B    14 A    14 B    15 A    15 B    16 B    16 A
 -0.740  -0.730  -0.721  -0.688  -0.665  -0.661  -0.642  -0.538
 17 A    17 B    18 A    19 A    18 B    19 B    20 A    20 B
 -0.533  -0.516
 21 A    22 A

          Ground-State Mulliken Net Atomic Charges

     Atom                 Charge (a.u.)    Spin (a.u.)
  --------------------------------------------------------
      1 S                     0.250756      -0.018826
      2 C                    -0.112475       0.002101
      3 C                    -0.164609       0.406169
      4 C                    -0.141583      -0.210461
      5 C                    -0.001436       0.323924
      6 H                     0.202953       0.018810
      7 C                    -0.001436       0.323924
      8 S                     0.250756      -0.018826
      9 C                    -0.141583      -0.210461
     10 C                    -0.112475       0.002101
     11 C                    -0.164609       0.406169
     12 H                     0.224864      -0.032042
     13 H                     0.241531       0.010326
     14 H                     0.224864      -0.032042
     15 H                     0.241531       0.010326
     16 H                     0.202953       0.018810
  --------------------------------------------------------
  Sum of atomic charges =     1.000000

                    Cartesian Multipole Moments
 -----------------------------------------------------------------
    Charge (ESU x 10^10)
                 4.8032
    Dipole Moment (Debye)
         X       0.0000      Y      -0.0000      Z       0.6110
       Tot       0.6110
    Quadrupole Moments (Debye-Ang)
        XX     -22.1336     XY       1.5366     YY     -56.5385
        XZ       0.0000     YZ       0.0000     ZZ     -72.8117

 Total job time:  18532.38s(wall), 90779.19s(cpu)
        *  Thank you very much for using Q-Chem.  Have a nice day.  *
