 Q-Chem 4.4, Q-Chem, Inc., Pleasanton, CA (2016)
 Q-Chem 4.4.1 for Intel X86 EM64T Linux

User input:
--------------------------------------------------------------
$molecule
 1  2
 S           1.81042700       -1.22909900       -0.13996800
 C           3.10211600       -0.18861200       -0.13982200
 C           2.74845300        1.15163900       -0.14006900
 C           1.39169900        1.31613900       -0.14029100
 C           0.68906700        0.11310500       -0.14015500
 H           0.90454800        2.27578700       -0.14040700
 C          -0.68906700       -0.11310500       -0.14015500
 S          -1.52414413       -0.51501555        1.34310963
 C          -1.59572053       -0.07318332       -1.19721138
 C          -2.97118964       -0.60902766        0.53794212
 C          -2.87981919       -0.35131977       -0.82095022
 H          -3.72902661       -0.37388167       -1.47710189
 H           4.10439600       -0.57731800       -0.13934700
 H           3.47107900        1.94537000       -0.13983300
 H          -3.86963636       -0.85290279        1.07550718
 H          -1.30356809        0.15515394       -2.20753284
$end

$rem
         jobtype = opt
        exchange = hf
           basis = cc-pvtz
  max_scf_cycles = 100
      mem_static = 6200
       mem_total = 62000
          method = mp2
$end

$opt
CONSTRAINT
tors 4 5 7 9 80.0
ENDCONSTRAINT
$end

--------------------------------------------------------------

   24   -1101.3188757956      6.08E-09 Convergence criterion met
 Total energy in the final basis set = -1101.3188757956
        MP2         total energy =     -1103.0819839110 au
   18   -1101.3218485161      6.44E-09 Convergence criterion met
 Total energy in the final basis set = -1101.3218485161
        MP2         total energy =     -1103.0869721378 au
   17   -1101.3224154108      9.68E-09 Convergence criterion met
 Total energy in the final basis set = -1101.3224154108
        MP2         total energy =     -1103.0876536340 au
   16   -1101.3236729611      5.96E-09 Convergence criterion met
 Total energy in the final basis set = -1101.3236729611
        MP2         total energy =     -1103.0879109893 au
   21   -1101.3265996797      8.89E-09 Convergence criterion met
 Total energy in the final basis set = -1101.3265996797
        MP2         total energy =     -1103.0882510714 au
 Total energy in the final basis set = -1101.3367213731
        MP2         total energy =     -1103.0893893328 au
   14   -1101.3368954159      9.51E-09 Convergence criterion met
 Total energy in the final basis set = -1101.3368954159
        MP2         total energy =     -1103.0894252068 au
   13   -1101.3367978274      9.39E-09 Convergence criterion met
 Total energy in the final basis set = -1101.3367978274
        MP2         total energy =     -1103.0894281645 au
   12   -1101.3368984224      9.52E-09 Convergence criterion met
 Total energy in the final basis set = -1101.3368984224
        MP2         total energy =     -1103.0894344931 au

             Standard Nuclear Orientation (Angstroms)
    I     Atom           X                Y                Z
 ----------------------------------------------------------------
    1      S      -1.5661077281     0.5666007914     1.0059633353
    2      C      -3.0032227122    -0.0008091309     0.4096488230
    3      C      -2.8890407314    -0.6661642622    -0.7968471924
    4      C      -1.5978404803    -0.6580469469    -1.2546879529
    5      C      -0.7132649217     0.0182976566    -0.4218821396
    6      H      -1.2747319861    -1.1367979118    -2.1625917251
    7      C       0.7132649217    -0.0182976566    -0.4218821396
    8      S       1.5661077281    -0.5666007914     1.0059633353
    9      C       1.5978404803     0.6580469469    -1.2546879529
   10      C       3.0032227122     0.0008091309     0.4096488230
   11      C       2.8890407314     0.6661642622    -0.7968471924
   12      H       3.7205651291     1.1335150384    -1.2890546098
   13      H      -3.9198919380     0.1880341413     0.9396316317
   14      H      -3.7205651291    -1.1335150384    -1.2890546098
   15      H       3.9198919380    -0.1880341413     0.9396316317
   16      H       1.2747319861     1.1367979118    -2.1625917251
 ----------------------------------------------------------------

    8   -1101.3369047511      7.82E-09 Convergence criterion met
 Total energy in the final basis set = -1101.3369047511
        MP2         total energy =     -1103.0894349010 au
 Final energy is   -1103.08943490095
 **  OPTIMIZATION CONVERGED  **

             Orbital Energies (a.u.) and Symmetries
 --------------------------------------------------------------
 Warning : Irrep of orbital(   1) could not be determined
 Warning : Irrep of orbital(   2) could not be determined
 Warning : Irrep of orbital(   5) could not be determined
 Warning : Irrep of orbital(   6) could not be determined
 Warning : Irrep of orbital(   7) could not be determined
 Warning : Irrep of orbital(   8) could not be determined
 Warning : Irrep of orbital(   9) could not be determined
 Warning : Irrep of orbital(  10) could not be determined
 Warning : Irrep of orbital(  11) could not be determined
 Warning : Irrep of orbital(  12) could not be determined
 Warning : Irrep of orbital(  13) could not be determined
 Warning : Irrep of orbital(  14) could not be determined
 Warning : Irrep of orbital(  15) could not be determined
 Warning : Irrep of orbital(  16) could not be determined
 Warning : Irrep of orbital(  17) could not be determined
 Warning : Irrep of orbital(  18) could not be determined

 Alpha MOs, Unrestricted
 -- Occupied --
-92.160 -92.160 -11.478 -11.477 -11.451 -11.451 -11.434 -11.434
  0 xxx   0 xxx   1 A     1 B     0 xxx   0 xxx   0 xxx   0 xxx
-11.402 -11.402  -9.162  -9.162  -6.843  -6.843  -6.842  -6.842
  0 xxx   0 xxx   0 xxx   0 xxx   0 xxx   0 xxx   0 xxx   0 xxx
 -6.840  -6.840  -1.394  -1.364  -1.229  -1.187  -1.185  -1.129
  0 xxx   0 xxx   2 A     2 B     3 A     4 A     3 B     4 B
 -0.996  -0.952  -0.935  -0.905  -0.887  -0.824  -0.753  -0.752
  5 A     6 A     5 B     6 B     7 A     7 B     8 B     8 A
 -0.745  -0.736  -0.727  -0.709  -0.693  -0.662  -0.650  -0.564
  9 A     9 B    10 A    11 A    10 B    12 A    11 B    12 B
 -0.539  -0.510  -0.494
 13 A    13 B    14 A

 Beta MOs, Unrestricted
 -- Occupied --
-92.161 -92.161 -11.477 -11.476 -11.439 -11.439 -11.427 -11.427
  0 xxx   0 xxx   1 A     1 B     0 xxx   0 xxx   0 xxx   0 xxx
-11.409 -11.409  -9.164  -9.164  -6.845  -6.845  -6.844  -6.844
  0 xxx   0 xxx   0 xxx   0 xxx   0 xxx   0 xxx   0 xxx   0 xxx
 -6.843  -6.843  -1.381  -1.349  -1.216  -1.183  -1.175  -1.107
  0 xxx   0 xxx   2 A     2 B     3 A     4 A     3 B     4 B
 -0.987  -0.944  -0.923  -0.900  -0.884  -0.819  -0.748  -0.740
  5 A     6 A     5 B     6 B     7 A     7 B     8 A     9 A
 -0.738  -0.723  -0.722  -0.675  -0.664  -0.663  -0.647  -0.537
  8 B     9 B    10 A    10 B    11 A    12 A    11 B    13 A
 -0.530  -0.488
 12 B    13 B

          Ground-State Mulliken Net Atomic Charges

     Atom                 Charge (a.u.)    Spin (a.u.)
  --------------------------------------------------------
      1 S                     0.262779      -0.039623
      2 C                    -0.110032      -0.096225
      3 C                    -0.157637       0.478676
      4 C                    -0.126501      -0.302071
      5 C                    -0.056079       0.454638
      6 H                     0.220655       0.023700
      7 C                    -0.056300       0.453247
      8 S                     0.262636      -0.039423
      9 C                    -0.126596      -0.301658
     10 C                    -0.110149      -0.096152
     11 C                    -0.157662       0.478322
     12 H                     0.226133      -0.035389
     13 H                     0.241007       0.016854
     14 H                     0.226158      -0.035415
     15 H                     0.240979       0.016845
     16 H                     0.220610       0.023672
  --------------------------------------------------------
  Sum of atomic charges =     1.000000

                    Cartesian Multipole Moments
 -----------------------------------------------------------------
    Charge (ESU x 10^10)
                 4.8032
    Dipole Moment (Debye)
         X      -0.0054      Y      -0.0001      Z      -0.3122
       Tot       0.3122
    Quadrupole Moments (Debye-Ang)
        XX     -23.3203     XY       3.9624     YY     -68.8192
        XZ       0.0001     YZ       0.0010     ZZ     -59.6270

 Total job time:  37772.82s(wall), 185606.20s(cpu)
        *  Thank you very much for using Q-Chem.  Have a nice day.  *
