 Q-Chem 4.4, Q-Chem, Inc., Pleasanton, CA (2016)
 Q-Chem 4.4.1 for Intel X86 EM64T Linux

User input:
--------------------------------------------------------------
$molecule
 1  2
 S           1.81042700       -1.22909900       -0.13996800
 C           3.10211600       -0.18861200       -0.13982200
 C           2.74845300        1.15163900       -0.14006900
 C           1.39169900        1.31613900       -0.14029100
 C           0.68906700        0.11310500       -0.14015500
 H           0.90454800        2.27578700       -0.14040700
 C          -0.68906700       -0.11310500       -0.14015500
 S          -1.37957651       -1.39576158       -1.10811604
 C          -1.69874674        0.55448088        0.54966996
 C          -2.90515940       -1.01130218       -0.58289085
 C          -2.94621586        0.05318711        0.30397285
 H          -3.85945428        0.42071980        0.73188944
 H           4.10439600       -0.57731800       -0.13934700
 H           3.47107900        1.94537000       -0.13983300
 H          -3.75131235       -1.57376542       -0.93405757
 H          -1.50506893        1.38275288        1.20898384
$end

$rem
         jobtype = opt
        exchange = hf
           basis = cc-pvtz
  max_scf_cycles = 100
      mem_static = 6200
       mem_total = 62000
          method = mp2
$end

$opt
CONSTRAINT
tors 4 5 7 9 -40.0
ENDCONSTRAINT
$end

--------------------------------------------------------------

   23   -1101.3550851850      6.50E-09 Convergence criterion met
 Total energy in the final basis set = -1101.3550851850
        MP2         total energy =     -1103.1014053161 au
   15   -1101.3573153602      6.71E-09 Convergence criterion met
 Total energy in the final basis set = -1101.3573153602
        MP2         total energy =     -1103.1030010858 au
   16   -1101.3594081345      7.07E-09 Convergence criterion met
 Total energy in the final basis set = -1101.3594081345
        MP2         total energy =     -1103.1038857765 au
   16   -1101.3608068928      5.58E-09 Convergence criterion met
 Total energy in the final basis set = -1101.3608068928
        MP2         total energy =     -1103.1041490925 au
   15   -1101.3613103821      5.26E-09 Convergence criterion met
 Total energy in the final basis set = -1101.3613103821
        MP2         total energy =     -1103.1042176141 au
   12   -1101.3614157286      8.54E-09 Convergence criterion met
 Total energy in the final basis set = -1101.3614157286
        MP2         total energy =     -1103.1042322828 au

             Standard Nuclear Orientation (Angstroms)
    I     Atom           X                Y                Z
 ----------------------------------------------------------------
    1      S       1.6131480922     0.3022606799     1.1330350335
    2      C       3.0416324173     0.0136020210     0.3332155674
    3      C       2.8838877362    -0.3129412447    -1.0010187891
    4      C       1.5675212354    -0.3070820631    -1.3702546815
    5      C       0.7008486343     0.0321852347    -0.3298711994
    6      H       1.2150224700    -0.5578926535    -2.3550822508
    7      C      -0.7008486343    -0.0321852347    -0.3298711994
    8      S      -1.6131480922    -0.3022606799     1.1330350335
    9      C      -1.5675212354     0.3070820631    -1.3702546815
   10      C      -3.0416324173    -0.0136020210     0.3332155674
   11      C      -2.8838877362     0.3129412447    -1.0010187891
   12      H      -3.7085519400     0.5508491017    -1.6455243980
   13      H       3.9766378658     0.1068125845     0.8554479560
   14      H       3.7085519400    -0.5508491017    -1.6455243980
   15      H      -3.9766378658    -0.1068125845     0.8554479560
   16      H      -1.2150224700     0.5578926535    -2.3550822508
 ----------------------------------------------------------------

   10   -1101.3613750784      9.63E-09 Convergence criterion met
 Total energy in the final basis set = -1101.3613750784
        MP2         total energy =     -1103.1042286969 au
 Final energy is   -1103.10422869691
 **  OPTIMIZATION CONVERGED  **

             Orbital Energies (a.u.) and Symmetries
 --------------------------------------------------------------

 Alpha MOs, Unrestricted
 -- Occupied --
-92.160 -92.160 -11.477 -11.475 -11.451 -11.451 -11.435 -11.435
  1 A     1 B     2 A     2 B     3 B     3 A     4 B     4 A
-11.403 -11.403  -9.163  -9.162  -6.843  -6.843  -6.843  -6.843
  5 A     5 B     6 B     6 A     7 B     7 A     8 A     8 B
 -6.840  -6.840  -1.395  -1.364  -1.232  -1.192  -1.183  -1.129
  9 A     9 B    10 A    10 B    11 A    12 A    11 B    12 B
 -1.000  -0.960  -0.926  -0.905  -0.891  -0.822  -0.753  -0.753
 13 A    14 A    13 B    14 B    15 A    15 B    16 A    16 B
 -0.749  -0.736  -0.731  -0.710  -0.692  -0.668  -0.645  -0.580
 17 A    17 B    18 A    19 A    18 B    20 A    19 B    20 B
 -0.535  -0.524  -0.479
 21 A    21 B    22 A

 Beta MOs, Unrestricted
 -- Occupied --
-92.162 -92.162 -11.477 -11.475 -11.439 -11.439 -11.427 -11.427
  1 A     1 B     2 A     2 B     3 B     3 A     4 B     4 A
-11.410 -11.410  -9.164  -9.164  -6.845  -6.845  -6.844  -6.844
  5 B     5 A     6 B     6 A     7 B     7 A     8 B     8 A
 -6.844  -6.844  -1.383  -1.349  -1.222  -1.187  -1.174  -1.105
  9 B     9 A    10 A    10 B    11 A    12 A    11 B    12 B
 -0.992  -0.952  -0.915  -0.900  -0.888  -0.818  -0.752  -0.742
 13 A    14 A    13 B    14 B    15 A    15 B    16 A    17 A
 -0.735  -0.729  -0.721  -0.683  -0.669  -0.661  -0.644  -0.538
 16 B    18 A    17 B    18 B    19 A    20 A    19 B    20 B
 -0.534  -0.514
 21 A    21 B

          Ground-State Mulliken Net Atomic Charges

     Atom                 Charge (a.u.)    Spin (a.u.)
  --------------------------------------------------------
      1 S                     0.242579      -0.034843
      2 C                    -0.109963       0.012987
      3 C                    -0.167125       0.376932
      4 C                    -0.122683      -0.181210
      5 C                    -0.020349       0.328323
      6 H                     0.211853       0.018408
      7 C                    -0.020349       0.328323
      8 S                     0.242579      -0.034843
      9 C                    -0.122683      -0.181210
     10 C                    -0.109963       0.012987
     11 C                    -0.167125       0.376932
     12 H                     0.225074      -0.030722
     13 H                     0.240613       0.010126
     14 H                     0.225074      -0.030722
     15 H                     0.240613       0.010126
     16 H                     0.211853       0.018408
  --------------------------------------------------------
  Sum of atomic charges =     1.000000

                    Cartesian Multipole Moments
 -----------------------------------------------------------------
    Charge (ESU x 10^10)
                 4.8032
    Dipole Moment (Debye)
         X      -0.0000      Y       0.0000      Z      -0.8920
       Tot       0.8920
    Quadrupole Moments (Debye-Ang)
        XX     -22.5400     XY      -1.7389     YY     -72.3732
        XZ      -0.0000     YZ       0.0000     ZZ     -56.5676

 Total job time:  22251.19s(wall), 108197.20s(cpu)
        *  Thank you very much for using Q-Chem.  Have a nice day.  *
