 Q-Chem 4.4, Q-Chem, Inc., Pleasanton, CA (2016)
 Q-Chem 4.4.1 for Intel X86 EM64T Linux

User input:
--------------------------------------------------------------
$molecule
 1  2
 S           1.81042700       -1.22909900       -0.13996800
 C           3.10211600       -0.18861200       -0.13982200
 C           2.74845300        1.15163900       -0.14006900
 C           1.39169900        1.31613900       -0.14029100
 C           0.68906700        0.11310500       -0.14015500
 H           0.90454800        2.27578700       -0.14040700
 C          -0.68906700       -0.11310500       -0.14015500
 S          -1.64994107        0.25137426        1.27506080
 C          -1.50607061       -0.61935544       -1.14871741
 C          -3.02870509       -0.25862760        0.50695822
 C          -2.82208415       -0.70305762       -0.78962964
 H          -3.61564981       -1.06460454       -1.41551674
 H           4.10439600       -0.57731800       -0.13934700
 H           3.47107900        1.94537000       -0.13983300
 H          -3.97275213       -0.22469292        1.02006775
 H          -1.12823220       -0.91304088       -2.11268182
$end

$rem
         jobtype = opt
        exchange = hf
           basis = cc-pvtz
  max_scf_cycles = 100
      mem_static = 6200
       mem_total = 62000
          method = mp2
$end

$opt
CONSTRAINT
tors 4 5 7 9 110.0
ENDCONSTRAINT
$end

--------------------------------------------------------------

   25   -1101.3303572420      4.94E-09 Convergence criterion met
 Total energy in the final basis set = -1101.3303572420
        MP2         total energy =     -1103.0858692549 au
   17   -1101.3344633406      7.00E-09 Convergence criterion met
 Total energy in the final basis set = -1101.3344633406
        MP2         total energy =     -1103.0904769985 au
   17   -1101.3373258902      7.03E-09 Convergence criterion met
 Total energy in the final basis set = -1101.3373258902
        MP2         total energy =     -1103.0924450966 au
   17   -1101.3405584305      8.13E-09 Convergence criterion met
 Total energy in the final basis set = -1101.3405584305
        MP2         total energy =     -1103.0938319155 au
   18   -1101.3432339460      4.77E-09 Convergence criterion met
 Total energy in the final basis set = -1101.3432339460
        MP2         total energy =     -1103.0946482001 au
   16   -1101.3442977419      5.43E-09 Convergence criterion met
 Total energy in the final basis set = -1101.3442977419
        MP2         total energy =     -1103.0948407690 au
   14   -1101.3447232963      8.78E-09 Convergence criterion met
 Total energy in the final basis set = -1101.3447232963
        MP2         total energy =     -1103.0948904286 au
   13   -1101.3448057092      4.81E-09 Convergence criterion met
 Total energy in the final basis set = -1101.3448057092
        MP2         total energy =     -1103.0948934177 au

             Standard Nuclear Orientation (Angstroms)
    I     Atom           X                Y                Z
 ----------------------------------------------------------------
    1      S       1.8111514362    -1.1541042058     0.4763269879
    2      C       3.0891021077    -0.2688594325    -0.0959631033
    3      C       2.7314547221     0.9566702918    -0.6290653232
    4      C       1.3853759462     1.1780345150    -0.5257202487
    5      C       0.6953209854     0.1387153803     0.0934242666
    6      H       0.8890498309     2.0578271072    -0.8970031532
    7      C      -0.6953209854    -0.1387153803     0.0934242666
    8      S      -1.8111514362     1.1541042058     0.4763269879
    9      C      -1.3853759462    -1.1780345150    -0.5257202487
   10      C      -3.0891021077     0.2688594325    -0.0959631033
   11      C      -2.7314547221    -0.9566702918    -0.6290653232
   12      H      -3.4374543480    -1.6285711500    -1.0786453834
   13      H       4.0907477767    -0.6521039003    -0.0159547468
   14      H       3.4374543480     1.6285711500    -1.0786453834
   15      H      -4.0907477767     0.6521039003    -0.0159547468
   16      H      -0.8890498309    -2.0578271072    -0.8970031532
 ----------------------------------------------------------------

   12   -1101.3448559075      7.30E-09 Convergence criterion met
 Total energy in the final basis set = -1101.3448559075
        MP2         total energy =     -1103.0948953691 au
 Final energy is   -1103.09489536912
 **  OPTIMIZATION CONVERGED  **

             Orbital Energies (a.u.) and Symmetries
 --------------------------------------------------------------

 Alpha MOs, Unrestricted
 -- Occupied --
-92.159 -92.159 -11.479 -11.478 -11.452 -11.452 -11.436 -11.436
  1 A     1 B     2 A     2 B     3 B     3 A     4 B     4 A
-11.403 -11.403  -9.162  -9.162  -6.842  -6.842  -6.842  -6.842
  5 B     5 A     6 A     6 B     7 B     7 A     8 A     8 B
 -6.840  -6.840  -1.395  -1.365  -1.230  -1.195  -1.180  -1.130
  9 B     9 A    10 A    10 B    11 A    11 B    12 A    12 B
 -0.997  -0.959  -0.930  -0.906  -0.888  -0.824  -0.756  -0.749
 13 A    13 B    14 A    14 B    15 A    15 B    16 A    17 A
 -0.748  -0.737  -0.734  -0.711  -0.693  -0.662  -0.644  -0.572
 16 B    18 A    17 B    18 B    19 A    19 B    20 A    21 A
 -0.535  -0.519  -0.487
 20 B    22 A    21 B

 Beta MOs, Unrestricted
 -- Occupied --
-92.161 -92.161 -11.478 -11.477 -11.440 -11.440 -11.429 -11.429
  1 A     1 B     2 A     2 B     3 B     3 A     4 A     4 B
-11.409 -11.409  -9.163  -9.163  -6.844  -6.844  -6.843  -6.843
  5 B     5 A     6 A     6 B     7 B     7 A     8 A     8 B
 -6.843  -6.843  -1.382  -1.350  -1.218  -1.186  -1.175  -1.107
  9 A     9 B    10 A    10 B    11 A    11 B    12 A    12 B
 -0.989  -0.949  -0.918  -0.901  -0.887  -0.819  -0.745  -0.744
 13 A    13 B    14 A    14 B    15 A    15 B    16 A    16 B
 -0.740  -0.729  -0.721  -0.680  -0.667  -0.659  -0.642  -0.535
 17 A    17 B    18 A    19 A    18 B    19 B    20 A    21 A
 -0.535  -0.499
 20 B    22 A

          Ground-State Mulliken Net Atomic Charges

     Atom                 Charge (a.u.)    Spin (a.u.)
  --------------------------------------------------------
      1 S                     0.263461      -0.037410
      2 C                    -0.105674      -0.058733
      3 C                    -0.170655       0.442684
      4 C                    -0.116916      -0.256796
      5 C                    -0.051556       0.408416
      6 H                     0.215771       0.021260
      7 C                    -0.051556       0.408416
      8 S                     0.263461      -0.037410
      9 C                    -0.116916      -0.256796
     10 C                    -0.105674      -0.058733
     11 C                    -0.170655       0.442684
     12 H                     0.224644      -0.033627
     13 H                     0.240926       0.014207
     14 H                     0.224644      -0.033627
     15 H                     0.240926       0.014207
     16 H                     0.215771       0.021260
  --------------------------------------------------------
  Sum of atomic charges =     1.000000

                    Cartesian Multipole Moments
 -----------------------------------------------------------------
    Charge (ESU x 10^10)
                 4.8032
    Dipole Moment (Debye)
         X      -0.0000      Y      -0.0000      Z      -1.3177
       Tot       1.3177
    Quadrupole Moments (Debye-Ang)
        XX     -22.7686     XY      -0.6654     YY     -59.1084
        XZ       0.0000     YZ       0.0000     ZZ     -70.0108

 Total job time:  28701.70s(wall), 139339.89s(cpu)
        *  Thank you very much for using Q-Chem.  Have a nice day.  *
