 Q-Chem 4.4, Q-Chem, Inc., Pleasanton, CA (2016)
 Q-Chem 4.4.1 for Intel X86 EM64T Linux

User input:
--------------------------------------------------------------
$molecule
 1  2
 S           1.81042700       -1.22909900       -0.13996800
 C           3.10211600       -0.18861200       -0.13982200
 C           2.74845300        1.15163900       -0.14006900
 C           1.39169900        1.31613900       -0.14029100
 C           0.68906700        0.11310500       -0.14015500
 H           0.90454800        2.27578700       -0.14040700
 C          -0.68906700       -0.11310500       -0.14015500
 S          -1.79570410        1.13940304       -0.65545859
 C          -1.40219120       -1.25221759        0.22707642
 C          -3.09539850        0.14768712       -0.37551627
 C          -2.75521981       -1.11041373        0.09651237
 H          -3.48437589       -1.86436163        0.32474745
 H           4.10439600       -0.57731800       -0.13934700
 H           3.47107900        1.94537000       -0.13983300
 H          -4.09236450        0.50401875       -0.56191461
 H          -0.92506927       -2.15076573        0.57808399
$end

$rem
         jobtype = opt
        exchange = hf
           basis = cc-pvtz
  max_scf_cycles = 100
      mem_static = 6200
       mem_total = 62000
          method = mp2
$end

$opt
CONSTRAINT
tors 4 5 7 9 -160.0
ENDCONSTRAINT
$end

--------------------------------------------------------------

   23   -1101.3647795551      3.77E-09 Convergence criterion met
 Total energy in the final basis set = -1101.3647795551
        MP2         total energy =     -1103.1085506602 au
   11   -1101.3653783555      8.46E-09 Convergence criterion met
 Total energy in the final basis set = -1101.3653783555
        MP2         total energy =     -1103.1091254658 au
   14   -1101.3656973527      8.40E-09 Convergence criterion met
 Total energy in the final basis set = -1101.3656973527
        MP2         total energy =     -1103.1093897244 au
   12   -1101.3657868218      7.64E-09 Convergence criterion met
 Total energy in the final basis set = -1101.3657868218
        MP2         total energy =     -1103.1094114745 au
   10   -1101.3658134980      7.31E-09 Convergence criterion met
 Total energy in the final basis set = -1101.3658134980
        MP2         total energy =     -1103.1094180347 au

             Standard Nuclear Orientation (Angstroms)
    I     Atom           X                Y                Z
 ----------------------------------------------------------------
    1      S       1.8262336682    -1.1980545655    -0.1479875318
    2      C       3.1032512815    -0.1546677681     0.0292674385
    3      C       2.7317368026     1.1707352881     0.1900677337
    4      C       1.3737647513     1.3226292272     0.1565604333
    5      C       0.6879930186     0.1243305264    -0.0298603182
    6      H       0.8728929278     2.2677338959     0.2750102254
    7      C      -0.6879930186    -0.1243305264    -0.0298603182
    8      S      -1.8262336682     1.1980545655    -0.1479875318
    9      C      -1.3737647513    -1.3226292272     0.1565604333
   10      C      -3.1032512815     0.1546677681     0.0292674385
   11      C      -2.7317368026    -1.1707352881     0.1900677337
   12      H      -3.4423914863    -1.9627735972     0.3308383971
   13      H       4.1104724736    -0.5297863782     0.0063365462
   14      H       3.4423914863     1.9627735972     0.3308383971
   15      H      -4.1104724736     0.5297863782     0.0063365462
   16      H      -0.8728929278    -2.2677338959     0.2750102254
 ----------------------------------------------------------------

    8   -1101.3658159171      7.55E-09 Convergence criterion met
 Total energy in the final basis set = -1101.3658159171
        MP2         total energy =     -1103.1094173298 au
 Final energy is   -1103.10941732977
 **  OPTIMIZATION CONVERGED  **

             Orbital Energies (a.u.) and Symmetries
 --------------------------------------------------------------

 Alpha MOs, Unrestricted
 -- Occupied --
-92.160 -92.160 -11.476 -11.475 -11.452 -11.452 -11.434 -11.434
  1 A     1 B     2 A     2 B     3 B     3 A     4 B     4 A
-11.405 -11.405  -9.162  -9.162  -6.843  -6.843  -6.842  -6.842
  5 B     5 A     6 A     6 B     7 A     7 B     8 A     8 B
 -6.840  -6.840  -1.395  -1.365  -1.232  -1.199  -1.178  -1.129
  9 B     9 A    10 A    10 B    11 A    11 B    12 A    12 B
 -1.001  -0.965  -0.923  -0.905  -0.891  -0.823  -0.753  -0.750
 13 A    13 B    14 A    14 B    15 A    15 B    16 A    16 B
 -0.749  -0.742  -0.734  -0.711  -0.696  -0.666  -0.641  -0.584
 17 A    18 A    17 B    18 B    19 A    19 B    20 A    21 A
 -0.542  -0.520  -0.476
 20 B    22 A    21 B

 Beta MOs, Unrestricted
 -- Occupied --
-92.161 -92.161 -11.476 -11.475 -11.440 -11.440 -11.426 -11.426
  1 A     1 B     2 A     2 B     3 B     3 A     4 A     4 B
-11.412 -11.412  -9.163  -9.163  -6.844  -6.844  -6.844  -6.844
  5 B     5 A     6 A     6 B     7 A     7 B     8 A     8 B
 -6.843  -6.843  -1.384  -1.349  -1.222  -1.189  -1.174  -1.106
  9 A     9 B    10 A    10 B    11 A    11 B    12 A    12 B
 -0.993  -0.956  -0.911  -0.901  -0.890  -0.819  -0.748  -0.745
 13 A    13 B    14 A    14 B    15 A    15 B    16 B    16 A
 -0.739  -0.730  -0.721  -0.690  -0.665  -0.661  -0.642  -0.539
 17 A    17 B    18 A    19 A    18 B    19 B    20 A    20 B
 -0.533  -0.518
 21 A    22 A

          Ground-State Mulliken Net Atomic Charges

     Atom                 Charge (a.u.)    Spin (a.u.)
  --------------------------------------------------------
      1 S                     0.248453      -0.016211
      2 C                    -0.114691       0.008346
      3 C                    -0.161788       0.402427
      4 C                    -0.147333      -0.206628
      5 C                     0.007934       0.315501
      6 H                     0.200628       0.018558
      7 C                     0.007934       0.315501
      8 S                     0.248453      -0.016211
      9 C                    -0.147333      -0.206628
     10 C                    -0.114691       0.008346
     11 C                    -0.161788       0.402427
     12 H                     0.225028      -0.031861
     13 H                     0.241769       0.009868
     14 H                     0.225028      -0.031861
     15 H                     0.241769       0.009868
     16 H                     0.200628       0.018558
  --------------------------------------------------------
  Sum of atomic charges =     1.000000

                    Cartesian Multipole Moments
 -----------------------------------------------------------------
    Charge (ESU x 10^10)
                 4.8032
    Dipole Moment (Debye)
         X       0.0000      Y      -0.0000      Z       0.4079
       Tot       0.4079
    Quadrupole Moments (Debye-Ang)
        XX     -22.0451     XY       1.8767     YY     -56.1491
        XZ       0.0000     YZ       0.0000     ZZ     -73.2187

 Total job time:  18144.15s(wall), 90201.98s(cpu)
        *  Thank you very much for using Q-Chem.  Have a nice day.  *
