 Q-Chem 4.4, Q-Chem, Inc., Pleasanton, CA (2016)
 Q-Chem 4.4.1 for Intel X86 EM64T Linux

User input:
--------------------------------------------------------------
$molecule
 1  2
 S           1.81042700       -1.22909900       -0.13996800
 C           3.10211600       -0.18861200       -0.13982200
 C           2.74845300        1.15163900       -0.14006900
 C           1.39169900        1.31613900       -0.14029100
 C           0.68906700        0.11310500       -0.14015500
 H           0.90454800        2.27578700       -0.14040700
 C          -0.68906700       -0.11310500       -0.14015500
 S          -1.32622353       -1.72080268       -0.40149690
 C          -1.73676924        0.78612451        0.04609446
 C          -2.88074792       -1.16002369       -0.25988277
 C          -2.97068990        0.20228980       -0.02037764
 H          -3.90750387        0.71345121        0.09490854
 H           4.10439600       -0.57731800       -0.13934700
 H           3.47107900        1.94537000       -0.13983300
 H          -3.70753119       -1.84049240       -0.35501184
 H          -1.57943172        1.83579162        0.22409520
$end

$rem
         jobtype = opt
        exchange = hf
           basis = cc-pvtz
  max_scf_cycles = 100
      mem_static = 6200
       mem_total = 62000
          method = mp2
$end

$opt
CONSTRAINT
tors 4 5 7 9 -10.0
ENDCONSTRAINT
$end

--------------------------------------------------------------

   21   -1101.3651995230      9.71E-09 Convergence criterion met
 Total energy in the final basis set = -1101.3651995230
        MP2         total energy =     -1103.1083057999 au
   15   -1101.3666435814      5.69E-09 Convergence criterion met
 Total energy in the final basis set = -1101.3666435814
        MP2         total energy =     -1103.1088715988 au
   15   -1101.3673562528      5.59E-09 Convergence criterion met
 Total energy in the final basis set = -1101.3673562528
        MP2         total energy =     -1103.1089662719 au
   14   -1101.3675980142      5.87E-09 Convergence criterion met
 Total energy in the final basis set = -1101.3675980142
        MP2         total energy =     -1103.1089815614 au
   12   -1101.3676639762      6.15E-09 Convergence criterion met
 Total energy in the final basis set = -1101.3676639762
        MP2         total energy =     -1103.1089884648 au

             Standard Nuclear Orientation (Angstroms)
    I     Atom           X                Y                Z
 ----------------------------------------------------------------
    1      S       1.6318534302     0.0832180607     1.1665997208
    2      C       3.0532669952     0.0088679391     0.3073080920
    3      C       2.8788371598    -0.0787532105    -1.0624336761
    4      C       1.5563886028    -0.0805809796    -1.4056436539
    5      C       0.6984142440     0.0069985165    -0.3063918556
    6      H       1.1984056332    -0.1516552240    -2.4169841762
    7      C      -0.6984142440    -0.0069985165    -0.3063918556
    8      S      -1.6318534302    -0.0832180607     1.1665997208
    9      C      -1.5563886028     0.0805809796    -1.4056436539
   10      C      -3.0532669952    -0.0088679391     0.3073080920
   11      C      -2.8788371598     0.0787532105    -1.0624336761
   12      H      -3.6990736252     0.1407409879    -1.7519464951
   13      H       3.9941910499     0.0361448501     0.8263229744
   14      H       3.6990736252    -0.1407409879    -1.7519464951
   15      H      -3.9941910499    -0.0361448501     0.8263229744
   16      H      -1.1984056332     0.1516552240    -2.4169841762
 ----------------------------------------------------------------

   11   -1101.3676360320      7.50E-09 Convergence criterion met
 Total energy in the final basis set = -1101.3676360320
        MP2         total energy =     -1103.1089875158 au
 Final energy is   -1103.10898751578
 **  OPTIMIZATION CONVERGED  **

             Orbital Energies (a.u.) and Symmetries
 --------------------------------------------------------------

 Alpha MOs, Unrestricted
 -- Occupied --
-92.160 -92.160 -11.476 -11.475 -11.452 -11.452 -11.435 -11.435
  1 A     1 B     2 A     2 B     3 B     3 A     4 B     4 A
-11.403 -11.403  -9.162  -9.162  -6.843  -6.843  -6.843  -6.843
  5 A     5 B     6 B     6 A     7 B     7 A     8 A     8 B
 -6.840  -6.840  -1.395  -1.364  -1.232  -1.193  -1.182  -1.129
  9 A     9 B    10 A    10 B    11 A    12 A    11 B    12 B
 -1.002  -0.963  -0.923  -0.905  -0.893  -0.821  -0.754  -0.752
 13 A    14 A    13 B    14 B    15 A    15 B    16 A    16 B
 -0.751  -0.736  -0.734  -0.710  -0.691  -0.670  -0.642  -0.586
 17 A    17 B    18 A    19 A    18 B    20 A    19 B    20 B
 -0.534  -0.529  -0.474
 21 A    21 B    22 A

 Beta MOs, Unrestricted
 -- Occupied --
-92.161 -92.161 -11.476 -11.475 -11.440 -11.440 -11.427 -11.427
  1 A     1 B     2 A     2 B     3 B     3 A     4 B     4 A
-11.410 -11.410  -9.164  -9.164  -6.845  -6.845  -6.844  -6.844
  5 B     5 A     6 B     6 A     7 A     7 B     8 A     8 B
 -6.844  -6.844  -1.383  -1.349  -1.223  -1.188  -1.174  -1.104
  9 B     9 A    10 A    10 B    11 A    12 A    11 B    12 B
 -0.993  -0.955  -0.913  -0.899  -0.891  -0.818  -0.753  -0.744
 13 A    14 A    13 B    14 B    15 A    15 B    16 A    17 A
 -0.731  -0.731  -0.721  -0.686  -0.670  -0.661  -0.642  -0.541
 16 B    18 A    17 B    18 B    19 A    20 A    19 B    20 B
 -0.531  -0.521
 21 A    21 B

          Ground-State Mulliken Net Atomic Charges

     Atom                 Charge (a.u.)    Spin (a.u.)
  --------------------------------------------------------
      1 S                     0.236834      -0.030014
      2 C                    -0.111116       0.033870
      3 C                    -0.174031       0.361263
      4 C                    -0.112451      -0.163425
      5 C                    -0.012122       0.302722
      6 H                     0.206740       0.017231
      7 C                    -0.012122       0.302722
      8 S                     0.236834      -0.030014
      9 C                    -0.112451      -0.163425
     10 C                    -0.111116       0.033870
     11 C                    -0.174031       0.361263
     12 H                     0.224148      -0.030357
     13 H                     0.241998       0.008710
     14 H                     0.224148      -0.030357
     15 H                     0.241998       0.008710
     16 H                     0.206740       0.017231
  --------------------------------------------------------
  Sum of atomic charges =     1.000000

                    Cartesian Multipole Moments
 -----------------------------------------------------------------
    Charge (ESU x 10^10)
                 4.8032
    Dipole Moment (Debye)
         X      -0.0000      Y       0.0000      Z      -1.0494
       Tot       1.0494
    Quadrupole Moments (Debye-Ang)
        XX     -22.2288     XY      -0.3658     YY     -73.4817
        XZ       0.0000     YZ      -0.0000     ZZ     -55.5843

 Total job time:  18807.54s(wall), 90869.86s(cpu)
        *  Thank you very much for using Q-Chem.  Have a nice day.  *
