 Q-Chem 4.4, Q-Chem, Inc., Pleasanton, CA (2016)
 Q-Chem 4.4.1 for Intel X86 EM64T Linux

User input:
--------------------------------------------------------------
$molecule
 1  2
 S           1.81042700       -1.22909900       -0.13996800
 C           3.10211600       -0.18861200       -0.13982200
 C           2.74845300        1.15163900       -0.14006900
 C           1.39169900        1.31613900       -0.14029100
 C           0.68906700        0.11310500       -0.14015500
 H           0.90454800        2.27578700       -0.14040700
 C          -0.68906700       -0.11310500       -0.14015500
 S          -1.60886780        0.00114452        1.34304202
 C          -1.53534173       -0.44102770       -1.19716415
 C          -3.00992482       -0.37304223        0.53799717
 C          -2.84093406       -0.58821877       -0.82085952
 H          -3.65266544       -0.83909511       -1.47687059
 H           4.10439600       -0.57731800       -0.13934700
 H           3.47107900        1.94537000       -0.13983300
 H          -3.93908114       -0.42982591        1.07567915
 H          -1.18548012       -0.56427070       -2.20743560
$end

$rem
         jobtype = opt
        exchange = hf
           basis = cc-pvtz
  max_scf_cycles = 100
      mem_static = 6200
       mem_total = 62000
          method = mp2
$end

$opt
CONSTRAINT
tors 4 5 7 9 100.0
ENDCONSTRAINT
$end

--------------------------------------------------------------

   27   -1101.3196030983      4.21E-09 Convergence criterion met
 Total energy in the final basis set = -1101.3196030983
        MP2         total energy =     -1103.0804758131 au
   18   -1101.3232258252      4.03E-09 Convergence criterion met
 Total energy in the final basis set = -1101.3232258252
        MP2         total energy =     -1103.0857185106 au
   18   -1101.3247661250      4.47E-09 Convergence criterion met
 Total energy in the final basis set = -1101.3247661250
        MP2         total energy =     -1103.0871455796 au
   17   -1101.3277010274      5.80E-09 Convergence criterion met
 Total energy in the final basis set = -1101.3277010274
        MP2         total energy =     -1103.0882574606 au
   18   -1101.3312573785      6.41E-09 Convergence criterion met
 Total energy in the final basis set = -1101.3312573785
        MP2         total energy =     -1103.0892642707 au
 Total energy in the final basis set = -1101.3365739504
        MP2         total energy =     -1103.0903597557 au
   15   -1101.3375062874      8.80E-09 Convergence criterion met
 Total energy in the final basis set = -1101.3375062874
        MP2         total energy =     -1103.0904901263 au
   14   -1101.3377477156      8.58E-09 Convergence criterion met
 Total energy in the final basis set = -1101.3377477156
        MP2         total energy =     -1103.0905080226 au
   13   -1101.3378162371      6.53E-09 Convergence criterion met
 Total energy in the final basis set = -1101.3378162371
        MP2         total energy =     -1103.0905114397 au

             Standard Nuclear Orientation (Angstroms)
    I     Atom           X                Y                Z
 ----------------------------------------------------------------
    1      S       1.8100093460    -1.1339943479     0.5404776995
    2      C       3.0879753743    -0.2942285565    -0.0945181311
    3      C       2.7330124059     0.8943548125    -0.7058106167
    4      C       1.3890665328     1.1310776981    -0.6038047097
    5      C       0.6979351042     0.1426933823     0.0925760427
    6      H       0.8940356427     1.9877313346    -1.0275693259
    7      C      -0.6979351042    -0.1426933823     0.0925760427
    8      S      -1.8100093460     1.1339943479     0.5404776995
    9      C      -1.3890665328    -1.1310776981    -0.6038047097
   10      C      -3.0879753743     0.2942285565    -0.0945181311
   11      C      -2.7330124059    -0.8943548125    -0.7058106167
   12      H      -3.4384340567    -1.5308758356    -1.2050052554
   13      H       4.0891960060    -0.6734751642     0.0084244053
   14      H       3.4384340567     1.5308758356    -1.2050052554
   15      H      -4.0891960060     0.6734751642     0.0084244053
   16      H      -0.8940356427    -1.9877313346    -1.0275693259
 ----------------------------------------------------------------

    9   -1101.3378328591      8.64E-09 Convergence criterion met
 Total energy in the final basis set = -1101.3378328591
        MP2         total energy =     -1103.0905151189 au
 Final energy is   -1103.09051511890
 **  OPTIMIZATION CONVERGED  **

             Orbital Energies (a.u.) and Symmetries
 --------------------------------------------------------------
 Warning : Irrep of orbital(   1) could not be determined
 Warning : Irrep of orbital(   2) could not be determined
 Warning : Irrep of orbital(   5) could not be determined
 Warning : Irrep of orbital(   6) could not be determined
 Warning : Irrep of orbital(   7) could not be determined
 Warning : Irrep of orbital(   8) could not be determined
 Warning : Irrep of orbital(   9) could not be determined
 Warning : Irrep of orbital(  10) could not be determined
 Warning : Irrep of orbital(  11) could not be determined
 Warning : Irrep of orbital(  12) could not be determined
 Warning : Irrep of orbital(  13) could not be determined
 Warning : Irrep of orbital(  14) could not be determined
 Warning : Irrep of orbital(  15) could not be determined
 Warning : Irrep of orbital(  16) could not be determined
 Warning : Irrep of orbital(  17) could not be determined
 Warning : Irrep of orbital(  18) could not be determined

 Alpha MOs, Unrestricted
 -- Occupied --
-92.159 -92.159 -11.480 -11.479 -11.451 -11.451 -11.437 -11.437
  0 xxx   0 xxx   1 A     1 B     0 xxx   0 xxx   0 xxx   0 xxx
-11.402 -11.402  -9.162  -9.162  -6.842  -6.842  -6.842  -6.842
  0 xxx   0 xxx   0 xxx   0 xxx   0 xxx   0 xxx   0 xxx   0 xxx
 -6.840  -6.840  -1.395  -1.365  -1.230  -1.194  -1.180  -1.130
  0 xxx   0 xxx   2 A     2 B     3 A     3 B     4 A     4 B
 -0.996  -0.956  -0.932  -0.906  -0.888  -0.825  -0.756  -0.749
  5 A     5 B     6 A     6 B     7 A     7 B     8 A     9 A
 -0.747  -0.736  -0.734  -0.710  -0.692  -0.661  -0.645  -0.569
  8 B    10 A     9 B    10 B    11 A    11 B    12 A    13 A
 -0.534  -0.517  -0.491
 12 B    14 A    13 B

 Beta MOs, Unrestricted
 -- Occupied --
-92.161 -92.161 -11.479 -11.478 -11.440 -11.440 -11.430 -11.430
  0 xxx   0 xxx   1 A     1 B     0 xxx   0 xxx   0 xxx   0 xxx
-11.409 -11.409  -9.163  -9.163  -6.844  -6.844  -6.844  -6.844
  0 xxx   0 xxx   0 xxx   0 xxx   0 xxx   0 xxx   0 xxx   0 xxx
 -6.843  -6.843  -1.382  -1.350  -1.217  -1.185  -1.176  -1.107
  0 xxx   0 xxx   2 A     2 B     3 A     3 B     4 A     4 B
 -0.988  -0.947  -0.920  -0.901  -0.886  -0.820  -0.745  -0.743
  5 A     5 B     6 A     6 B     7 A     7 B     8 A     8 B
 -0.740  -0.729  -0.721  -0.678  -0.667  -0.658  -0.642  -0.536
  9 A     9 B    10 A    11 A    10 B    11 B    12 A    13 A
 -0.534  -0.492
 12 B    14 A

          Ground-State Mulliken Net Atomic Charges

     Atom                 Charge (a.u.)    Spin (a.u.)
  --------------------------------------------------------
      1 S                     0.268372      -0.042966
      2 C                    -0.105573      -0.087667
      3 C                    -0.169611       0.460631
      4 C                    -0.113382      -0.281371
      5 C                    -0.063478       0.447378
      6 H                     0.218105       0.022557
      7 C                    -0.063500       0.447231
      8 S                     0.268356      -0.042945
      9 C                    -0.113393      -0.281326
     10 C                    -0.105586      -0.087655
     11 C                    -0.169612       0.460593
     12 H                     0.224725      -0.034458
     13 H                     0.240876       0.015953
     14 H                     0.224727      -0.034461
     15 H                     0.240873       0.015952
     16 H                     0.218100       0.022554
  --------------------------------------------------------
  Sum of atomic charges =     1.000000

                    Cartesian Multipole Moments
 -----------------------------------------------------------------
    Charge (ESU x 10^10)
                 4.8032
    Dipole Moment (Debye)
         X       0.0006      Y       0.0000      Z      -1.4370
       Tot       1.4370
    Quadrupole Moments (Debye-Ang)
        XX     -22.8703     XY      -1.2635     YY     -59.9892
        XZ      -0.0001     YZ      -0.0001     ZZ     -69.0610

 Total job time:  34973.99s(wall), 171791.52s(cpu)
        *  Thank you very much for using Q-Chem.  Have a nice day.  *
