 Q-Chem 4.4, Q-Chem, Inc., Pleasanton, CA (2016)
 Q-Chem 4.4.1 for Intel X86 EM64T Linux

User input:
--------------------------------------------------------------
$molecule
 1  2
 S           1.81042700       -1.22909900       -0.13996800
 C           3.10211600       -0.18861200       -0.13982200
 C           2.74845300        1.15163900       -0.14006900
 C           1.39169900        1.31613900       -0.14029100
 C           0.68906700        0.11310500       -0.14015500
 H           0.90454800        2.27578700       -0.14040700
 C          -0.68906700       -0.11310500       -0.14015500
 S          -1.32252283       -1.74334840       -0.13996033
 C          -1.73940664        0.80219231       -0.14029100
 C          -2.87904902       -1.17037388       -0.14031350
 C          -2.97238356        0.21260803       -0.14041617
 H          -3.91082550        0.73368754       -0.14082100
 H           4.10439600       -0.57731800       -0.13934700
 H           3.47107900        1.94537000       -0.13983300
 H          -3.70447945       -1.85908446       -0.14065016
 H          -1.58458952        1.86721439       -0.14043497
$end

$rem
         jobtype = opt
        exchange = hf
           basis = cc-pvtz
  max_scf_cycles = 100
      mem_static = 6200
       mem_total = 62000
          method = mp2
$end

$opt
CONSTRAINT
tors 4 5 7 9 0.0
ENDCONSTRAINT
$end

--------------------------------------------------------------

   22   -1101.3659283969      6.42E-09 Convergence criterion met
 Total energy in the final basis set = -1101.3659283969
        MP2         total energy =     -1103.1088981188 au
   14   -1101.3671958074      8.87E-09 Convergence criterion met
 Total energy in the final basis set = -1101.3671958074
        MP2         total energy =     -1103.1092474145 au
   14   -1101.3677365377      6.13E-09 Convergence criterion met
 Total energy in the final basis set = -1101.3677365377
        MP2         total energy =     -1103.1092957968 au

             Standard Nuclear Orientation (Angstroms)
    I     Atom           X                Y                Z
 ----------------------------------------------------------------
    1      S       1.6337548736     0.0000873054     1.1693156093
    2      C       3.0539600606     0.0001440195     0.3062925797
    3      C       2.8788730628     0.0001291980    -1.0665469660
    4      C       1.5562085351     0.0000681881    -1.4082543552
    5      C       0.6980832036     0.0000305882    -0.3054159618
    6      H       1.1983454590     0.0000361292    -2.4220673305
    7      C      -0.6980832036    -0.0000305882    -0.3054159618
    8      S      -1.6337548736    -0.0000873054     1.1693156093
    9      C      -1.5562085351    -0.0000681881    -1.4082543552
   10      C      -3.0539600606    -0.0001440195     0.3062925797
   11      C      -2.8788730628    -0.0001291980    -1.0665469660
   12      H      -3.6990156127    -0.0001563192    -1.7589331106
   13      H       3.9956029558     0.0001740224     0.8247832900
   14      H       3.6990156127     0.0001563192    -1.7589331106
   15      H      -3.9956029558    -0.0001740224     0.8247832900
   16      H      -1.1983454590    -0.0000361292    -2.4220673305
 ----------------------------------------------------------------

   13   -1101.3679138283      5.56E-09 Convergence criterion met
 Total energy in the final basis set = -1101.3679138283
        MP2         total energy =     -1103.1093000667 au
 Final energy is   -1103.10930006668
 **  OPTIMIZATION CONVERGED  **

             Orbital Energies (a.u.) and Symmetries
 --------------------------------------------------------------

 Alpha MOs, Unrestricted
 -- Occupied --
-92.160 -92.160 -11.476 -11.475 -11.452 -11.452 -11.435 -11.434
  1 A     1 B     2 A     2 B     3 B     3 A     4 B     4 A
-11.403 -11.403  -9.162  -9.162  -6.843  -6.843  -6.843  -6.843
  5 A     5 B     6 B     6 A     7 B     7 A     8 A     8 B
 -6.840  -6.840  -1.395  -1.364  -1.233  -1.193  -1.182  -1.129
  9 A     9 B    10 A    10 B    11 A    12 A    11 B    12 B
 -1.002  -0.963  -0.923  -0.905  -0.893  -0.821  -0.754  -0.752
 13 A    14 A    13 B    14 B    15 A    15 B    16 A    16 B
 -0.751  -0.736  -0.734  -0.710  -0.691  -0.670  -0.641  -0.586
 17 A    17 B    18 A    19 A    18 B    20 A    19 B    20 B
 -0.534  -0.529  -0.473
 21 A    21 B    22 A

 Beta MOs, Unrestricted
 -- Occupied --
-92.161 -92.161 -11.476 -11.475 -11.440 -11.440 -11.427 -11.427
  1 A     1 B     2 A     2 B     3 B     3 A     4 B     4 A
-11.410 -11.410  -9.164  -9.164  -6.845  -6.845  -6.844  -6.844
  5 B     5 A     6 B     6 A     7 A     7 B     8 A     8 B
 -6.844  -6.844  -1.383  -1.349  -1.223  -1.189  -1.174  -1.104
  9 B     9 A    10 A    10 B    11 A    12 A    11 B    12 B
 -0.994  -0.955  -0.913  -0.899  -0.891  -0.818  -0.753  -0.744
 13 A    14 A    13 B    14 B    15 A    15 B    16 A    17 A
 -0.732  -0.731  -0.721  -0.686  -0.671  -0.661  -0.641  -0.542
 18 A    16 B    17 B    18 B    19 A    20 A    19 B    20 B
 -0.531  -0.522
 21 A    21 B

          Ground-State Mulliken Net Atomic Charges

     Atom                 Charge (a.u.)    Spin (a.u.)
  --------------------------------------------------------
      1 S                     0.236567      -0.029224
      2 C                    -0.111164       0.034626
      3 C                    -0.174902       0.361148
      4 C                    -0.111677      -0.163289
      5 C                    -0.011722       0.301383
      6 H                     0.206663       0.017128
      7 C                    -0.011722       0.301383
      8 S                     0.236567      -0.029224
      9 C                    -0.111677      -0.163289
     10 C                    -0.111164       0.034626
     11 C                    -0.174902       0.361148
     12 H                     0.224038      -0.030389
     13 H                     0.242196       0.008617
     14 H                     0.224038      -0.030389
     15 H                     0.242196       0.008617
     16 H                     0.206663       0.017128
  --------------------------------------------------------
  Sum of atomic charges =     1.000000

                    Cartesian Multipole Moments
 -----------------------------------------------------------------
    Charge (ESU x 10^10)
                 4.8032
    Dipole Moment (Debye)
         X      -0.0000      Y       0.0000      Z      -1.0541
       Tot       1.0541
    Quadrupole Moments (Debye-Ang)
        XX     -22.1902     XY       0.0022     YY     -73.5657
        XZ      -0.0000     YZ      -0.0000     ZZ     -55.5126

 Total job time:  12984.12s(wall), 61834.37s(cpu)
        *  Thank you very much for using Q-Chem.  Have a nice day.  *
